    1C
    1U meshsolid_t.inp                                                  
    1UUSER                                                              
    1UDATE              11.july.2016                                    
    1UTIME              01:49:13                                        
    1UHOST                                                              
    1UPGM               CalculiX                                        
    1UVERSION           Version 2.10                             
    1UCOMPILETIME       Sa 5. Mär 12:23:33 CET 2016                    
    1UDIR                                                               
    1UDBN                                                               
    1UMAT    1PDMS                                                      
    2C                          2745                                     1
 -1         1 2.32070E+00-4.50000E-01 5.00000E-01
 -1         2 2.32070E+00 4.50000E-01 1.45000E+00
 -1         3 2.32070E+00-4.50000E-01 1.45000E+00
 -1         4 8.13414E+00 9.00000E-01 1.45000E+00
 -1         5 5.28227E+00 4.50000E-01 1.45000E+00
 -1         6 8.13414E+00-9.00000E-01 1.45000E+00
 -1         7 1.10957E+01 4.50000E-01 1.45000E+00
 -1         8 8.13414E+00 4.50000E-01 1.45000E+00
 -1         9 1.10957E+01-4.50000E-01 1.45000E+00
 -1        10 5.28227E+00 4.50000E-01 5.00000E-01
 -1        11 2.32070E+00 4.50000E-01 5.00000E-01
 -1        12 5.28227E+00-4.50000E-01 1.45000E+00
 -1        13 1.10957E+01-4.50000E-01 5.00000E-01
 -1        14 5.28227E+00-4.50000E-01 5.00000E-01
 -1        15 8.13414E+00-4.50000E-01 1.45000E+00
 -1        16 8.13414E+00 4.50000E-01 5.00000E-01
 -1        17 5.28227E+00-9.00000E-01 1.45000E+00
 -1        18 8.13414E+00-9.00000E-01 5.00000E-01
 -1        19 5.28227E+00 9.00000E-01 1.45000E+00
 -1        20 2.31626E+00 4.72349E-01 5.00000E-01
 -1        21 7.68717E+00 2.69706E+00 1.45000E+00
 -1        22 1.00789E+01 4.66189E+00 1.45000E+00
 -1        23 7.85938E+00 2.28131E+00 1.45000E+00
 -1        24 7.34276E+00 3.52855E+00 1.45000E+00
 -1        25 4.70797E+00 2.43718E+00 1.45000E+00
 -1        26 5.22459E+00 1.18994E+00 1.45000E+00
 -1        27 7.17055E+00 3.94429E+00 1.45000E+00
 -1        28 1.00789E+01 4.66189E+00 5.00000E-01
 -1        29 1.04233E+01 3.83040E+00 1.45000E+00
 -1        30 1.97184E+00 1.30384E+00 1.45000E+00
 -1        31 4.70797E+00 2.43718E+00 5.00000E-01
 -1        32 2.31626E+00 4.72349E-01 1.45000E+00
 -1        33 5.05239E+00 1.60569E+00 1.45000E+00
 -1        34 5.05239E+00 1.60569E+00 5.00000E-01
 -1        35 4.53576E+00 2.85293E+00 1.45000E+00
 -1        36 7.68717E+00 2.69706E+00 5.00000E-01
 -1        37 7.17055E+00 3.94429E+00 5.00000E-01
 -1        38 7.34276E+00 3.52855E+00 5.00000E-01
 -1        39 5.43351E+00 6.06990E+00 1.45000E+00
 -1        40 6.06990E+00 5.43351E+00 1.45000E+00
 -1        41 6.38810E+00 5.11531E+00 1.45000E+00
 -1        42 8.16405E+00 7.52765E+00 1.45000E+00
 -1        43 7.52765E+00 8.16405E+00 5.00000E-01
 -1        44 7.52765E+00 8.16405E+00 1.45000E+00
 -1        45 5.43351E+00 6.06990E+00 5.00000E-01
 -1        46 3.41693E+00 4.05332E+00 5.00000E-01
 -1        47 1.32279E+00 1.95918E+00 1.45000E+00
 -1        48 1.95918E+00 1.32279E+00 1.45000E+00
 -1        49 4.05332E+00 3.41693E+00 1.45000E+00
 -1        50 6.06990E+00 5.43351E+00 5.00000E-01
 -1        51 4.37152E+00 3.09873E+00 1.45000E+00
 -1        52 3.09873E+00 4.37152E+00 1.45000E+00
 -1        53 3.41693E+00 4.05332E+00 1.45000E+00
 -1        54 5.11531E+00 6.38810E+00 1.45000E+00
 -1        55 6.38810E+00 5.11531E+00 5.00000E-01
 -1        56 4.37152E+00 3.09873E+00 5.00000E-01
 -1        57 5.11531E+00 6.38810E+00 5.00000E-01
 -1        58 3.09873E+00 4.37152E+00 5.00000E-01
 -1        59 2.28131E+00 7.85938E+00 1.45000E+00
 -1        60 3.52855E+00 7.34276E+00 1.45000E+00
 -1        61 2.69706E+00 7.68717E+00 1.45000E+00
 -1        62 2.43718E+00 4.70797E+00 1.45000E+00
 -1        63 1.30384E+00 1.97184E+00 1.45000E+00
 -1        64 4.72349E-01 2.31626E+00 1.45000E+00
 -1        65 3.83040E+00 1.04233E+01 1.45000E+00
 -1        66 2.69706E+00 7.68717E+00 5.00000E-01
 -1        67 3.83040E+00 1.04233E+01 5.00000E-01
 -1        68 1.60569E+00 5.05239E+00 1.45000E+00
 -1        69 4.72349E-01 2.31626E+00 5.00000E-01
 -1        70 1.30384E+00 1.97184E+00 5.00000E-01
 -1        71 4.66189E+00 1.00789E+01 1.45000E+00
 -1        72 2.43718E+00 4.70797E+00 5.00000E-01
 -1        73 3.94429E+00 7.17055E+00 1.45000E+00
 -1        74 2.85293E+00 4.53576E+00 1.45000E+00
 -1        75 1.18994E+00 5.22459E+00 1.45000E+00
 -1        76-4.50000E-01 8.13414E+00 1.45000E+00
 -1        77 4.50000E-01 1.10957E+01 1.45000E+00
 -1        78-4.50000E-01 5.28227E+00 1.45000E+00
 -1        79 4.50000E-01 8.13414E+00 1.45000E+00
 -1        80-4.50000E-01 1.10957E+01 1.45000E+00
 -1        81-4.50000E-01 2.32070E+00 5.00000E-01
 -1        82-4.50000E-01 5.28227E+00 5.00000E-01
 -1        83-4.50000E-01 2.32070E+00 1.45000E+00
 -1        84 4.50000E-01 2.32070E+00 1.45000E+00
 -1        85 4.50000E-01 1.10957E+01 5.00000E-01
 -1        86 4.50000E-01 8.13414E+00 5.00000E-01
 -1        87 4.50000E-01 5.28227E+00 1.45000E+00
 -1        88 4.50000E-01 5.28227E+00 5.00000E-01
 -1        89 9.00000E-01 5.28227E+00 5.00000E-01
 -1        90-9.00000E-01 5.28227E+00 5.00000E-01
 -1        91 9.00000E-01 8.13414E+00 5.00000E-01
 -1        92-4.50000E-01 8.13414E+00 5.00000E-01
 -1        93 9.00000E-01 5.28227E+00 1.45000E+00
 -1        94 9.00000E-01 8.13414E+00 1.45000E+00
 -1        95-9.00000E-01 8.13414E+00 5.00000E-01
 -1        96-9.00000E-01 8.13414E+00 1.45000E+00
 -1        97-9.00000E-01 5.28227E+00 1.45000E+00
 -1        98-4.72349E-01 2.31626E+00 1.45000E+00
 -1        99-1.30384E+00 1.97184E+00 1.45000E+00
 -1       100-1.60569E+00 5.05239E+00 1.45000E+00
 -1       101-2.28131E+00 7.85938E+00 1.45000E+00
 -1       102-2.43718E+00 4.70797E+00 1.45000E+00
 -1       103-2.85293E+00 4.53576E+00 1.45000E+00
 -1       104-3.52855E+00 7.34276E+00 1.45000E+00
 -1       105-3.94429E+00 7.17055E+00 1.45000E+00
 -1       106-3.83040E+00 1.04233E+01 5.00000E-01
 -1       107-3.83040E+00 1.04233E+01 1.45000E+00
 -1       108-4.66189E+00 1.00789E+01 1.45000E+00
 -1       109-1.30384E+00 1.97184E+00 5.00000E-01
 -1       110-2.43718E+00 4.70797E+00 5.00000E-01
 -1       111-1.60569E+00 5.05239E+00 5.00000E-01
 -1       112-2.69706E+00 7.68717E+00 1.45000E+00
 -1       113-2.69706E+00 7.68717E+00 5.00000E-01
 -1       114-1.18994E+00 5.22459E+00 1.45000E+00
 -1       115-3.52855E+00 7.34276E+00 5.00000E-01
 -1       116-2.85293E+00 4.53576E+00 5.00000E-01
 -1       117-1.95918E+00 1.32279E+00 1.45000E+00
 -1       118-3.41693E+00 4.05332E+00 1.45000E+00
 -1       119-7.52765E+00 8.16405E+00 1.45000E+00
 -1       120-6.06990E+00 5.43351E+00 5.00000E-01
 -1       121-8.16405E+00 7.52765E+00 1.45000E+00
 -1       122-6.06990E+00 5.43351E+00 1.45000E+00
 -1       123-4.05332E+00 3.41693E+00 1.45000E+00
 -1       124-1.32279E+00 1.95918E+00 1.45000E+00
 -1       125-5.43351E+00 6.06990E+00 1.45000E+00
 -1       126-5.43351E+00 6.06990E+00 5.00000E-01
 -1       127-3.41693E+00 4.05332E+00 5.00000E-01
 -1       128-4.37152E+00 3.09873E+00 5.00000E-01
 -1       129-4.37152E+00 3.09873E+00 1.45000E+00
 -1       130-5.11531E+00 6.38810E+00 1.45000E+00
 -1       131-5.11531E+00 6.38810E+00 5.00000E-01
 -1       132-6.38810E+00 5.11531E+00 1.45000E+00
 -1       133-3.09873E+00 4.37152E+00 1.45000E+00
 -1       134-1.97184E+00 1.30384E+00 5.00000E-01
 -1       135-1.04233E+01 3.83040E+00 1.45000E+00
 -1       136-7.34276E+00 3.52855E+00 1.45000E+00
 -1       137-4.70797E+00 2.43718E+00 1.45000E+00
 -1       138-5.22459E+00 1.18994E+00 1.45000E+00
 -1       139-7.85938E+00 2.28131E+00 1.45000E+00
 -1       140-2.31626E+00 4.72349E-01 1.45000E+00
 -1       141-1.04233E+01 3.83040E+00 5.00000E-01
 -1       142-1.97184E+00 1.30384E+00 1.45000E+00
 -1       143-1.00789E+01 4.66189E+00 1.45000E+00
 -1       144-4.70797E+00 2.43718E+00 5.00000E-01
 -1       145-5.05239E+00 1.60569E+00 1.45000E+00
 -1       146-5.05239E+00 1.60569E+00 5.00000E-01
 -1       147-7.17055E+00 3.94429E+00 1.45000E+00
 -1       148-7.34276E+00 3.52855E+00 5.00000E-01
 -1       149-7.85938E+00 2.28131E+00 5.00000E-01
 -1       150-7.68717E+00 2.69706E+00 1.45000E+00
 -1       151-4.53576E+00 2.85293E+00 1.45000E+00
 -1       152-5.28227E+00 4.50000E-01 1.45000E+00
 -1       153-8.13414E+00 4.50000E-01 1.45000E+00
 -1       154-5.28227E+00 9.00000E-01 1.45000E+00
 -1       155-5.28227E+00-4.50000E-01 1.45000E+00
 -1       156-8.13414E+00-4.50000E-01 1.45000E+00
 -1       157-5.28227E+00-9.00000E-01 1.45000E+00
 -1       158-2.32070E+00-4.50000E-01 1.45000E+00
 -1       159-1.10957E+01 4.50000E-01 1.45000E+00
 -1       160-1.10957E+01-4.50000E-01 1.45000E+00
 -1       161-2.32070E+00 4.50000E-01 1.45000E+00
 -1       162-5.28227E+00 4.50000E-01 5.00000E-01
 -1       163-8.13414E+00 9.00000E-01 1.45000E+00
 -1       164-8.13414E+00-4.50000E-01 5.00000E-01
 -1       165-8.13414E+00-9.00000E-01 1.45000E+00
 -1       166-5.28227E+00-9.00000E-01 5.00000E-01
 -1       167-2.31626E+00-4.72349E-01 5.00000E-01
 -1       168-2.31626E+00-4.72349E-01 1.45000E+00
 -1       169-4.70797E+00-2.43718E+00 1.45000E+00
 -1       170-7.68717E+00-2.69706E+00 1.45000E+00
 -1       171-7.34276E+00-3.52855E+00 1.45000E+00
 -1       172-7.85938E+00-2.28131E+00 1.45000E+00
 -1       173-1.04233E+01-3.83040E+00 1.45000E+00
 -1       174-1.00789E+01-4.66189E+00 1.45000E+00
 -1       175-7.34276E+00-3.52855E+00 5.00000E-01
 -1       176-1.97184E+00-1.30384E+00 1.45000E+00
 -1       177-5.05239E+00-1.60569E+00 5.00000E-01
 -1       178-7.68717E+00-2.69706E+00 5.00000E-01
 -1       179-5.05239E+00-1.60569E+00 1.45000E+00
 -1       180-5.22459E+00-1.18994E+00 5.00000E-01
 -1       181-4.53576E+00-2.85293E+00 1.45000E+00
 -1       182-7.17055E+00-3.94429E+00 1.45000E+00
 -1       183-5.22459E+00-1.18994E+00 1.45000E+00
 -1       184-1.32279E+00-1.95918E+00 1.45000E+00
 -1       185-4.05332E+00-3.41693E+00 1.45000E+00
 -1       186-4.37152E+00-3.09873E+00 1.45000E+00
 -1       187-5.43351E+00-6.06990E+00 1.45000E+00
 -1       188-7.52765E+00-8.16405E+00 5.00000E-01
 -1       189-5.43351E+00-6.06990E+00 5.00000E-01
 -1       190-7.52765E+00-8.16405E+00 1.45000E+00
 -1       191-3.41693E+00-4.05332E+00 1.45000E+00
 -1       192-3.41693E+00-4.05332E+00 5.00000E-01
 -1       193-4.05332E+00-3.41693E+00 5.00000E-01
 -1       194-1.95918E+00-1.32279E+00 1.45000E+00
 -1       195-6.06990E+00-5.43351E+00 1.45000E+00
 -1       196-6.06990E+00-5.43351E+00 5.00000E-01
 -1       197-8.16405E+00-7.52765E+00 1.45000E+00
 -1       198-3.09873E+00-4.37152E+00 5.00000E-01
 -1       199-6.38810E+00-5.11531E+00 5.00000E-01
 -1       200-6.38810E+00-5.11531E+00 1.45000E+00
 -1       201-5.11531E+00-6.38810E+00 1.45000E+00
 -1       202-3.09873E+00-4.37152E+00 1.45000E+00
 -1       203-1.30384E+00-1.97184E+00 1.45000E+00
 -1       204-1.30384E+00-1.97184E+00 5.00000E-01
 -1       205-2.85293E+00-4.53576E+00 1.45000E+00
 -1       206-3.52855E+00-7.34276E+00 1.45000E+00
 -1       207-4.72349E-01-2.31626E+00 1.45000E+00
 -1       208-1.60569E+00-5.05239E+00 1.45000E+00
 -1       209-2.43718E+00-4.70797E+00 1.45000E+00
 -1       210-2.69706E+00-7.68717E+00 1.45000E+00
 -1       211-3.83040E+00-1.04233E+01 1.45000E+00
 -1       212-1.18994E+00-5.22459E+00 1.45000E+00
 -1       213-4.72349E-01-2.31626E+00 5.00000E-01
 -1       214-4.66189E+00-1.00789E+01 1.45000E+00
 -1       215-1.18994E+00-5.22459E+00 5.00000E-01
 -1       216-2.69706E+00-7.68717E+00 5.00000E-01
 -1       217-2.28131E+00-7.85938E+00 1.45000E+00
 -1       218-3.94429E+00-7.17055E+00 5.00000E-01
 -1       219-2.85293E+00-4.53576E+00 5.00000E-01
 -1       220-3.94429E+00-7.17055E+00 1.45000E+00
 -1       221-4.50000E-01-2.32070E+00 1.45000E+00
 -1       222 4.50000E-01-2.32070E+00 1.45000E+00
 -1       223 4.50000E-01-8.13414E+00 1.45000E+00
 -1       224 9.00000E-01-8.13414E+00 1.45000E+00
 -1       225 4.50000E-01-1.10957E+01 1.45000E+00
 -1       226 4.50000E-01-1.10957E+01 5.00000E-01
 -1       227 4.50000E-01-8.13414E+00 5.00000E-01
 -1       228 4.50000E-01-5.28227E+00 1.45000E+00
 -1       229-4.50000E-01-1.10957E+01 1.45000E+00
 -1       230-4.50000E-01-5.28227E+00 5.00000E-01
 -1       231-9.00000E-01-5.28227E+00 1.45000E+00
 -1       232-4.50000E-01-5.28227E+00 1.45000E+00
 -1       233 9.00000E-01-5.28227E+00 1.45000E+00
 -1       234-4.50000E-01-8.13414E+00 1.45000E+00
 -1       235-9.00000E-01-8.13414E+00 1.45000E+00
 -1       236-4.50000E-01-8.13414E+00 5.00000E-01
 -1       237 9.00000E-01-5.28227E+00 5.00000E-01
 -1       238 4.72349E-01-2.31626E+00 5.00000E-01
 -1       239 3.94429E+00-7.17055E+00 1.45000E+00
 -1       240 4.66189E+00-1.00789E+01 1.45000E+00
 -1       241 2.85293E+00-4.53576E+00 1.45000E+00
 -1       242 2.69706E+00-7.68717E+00 1.45000E+00
 -1       243 2.28131E+00-7.85938E+00 1.45000E+00
 -1       244 3.83040E+00-1.04233E+01 5.00000E-01
 -1       245 3.83040E+00-1.04233E+01 1.45000E+00
 -1       246 3.52855E+00-7.34276E+00 1.45000E+00
 -1       247 3.52855E+00-7.34276E+00 5.00000E-01
 -1       248 1.30384E+00-1.97184E+00 1.45000E+00
 -1       249 2.43718E+00-4.70797E+00 1.45000E+00
 -1       250 4.72349E-01-2.31626E+00 1.45000E+00
 -1       251 1.60569E+00-5.05239E+00 5.00000E-01
 -1       252 1.18994E+00-5.22459E+00 1.45000E+00
 -1       253 1.60569E+00-5.05239E+00 1.45000E+00
 -1       254 2.28131E+00-7.85938E+00 5.00000E-01
 -1       255 2.69706E+00-7.68717E+00 5.00000E-01
 -1       256 1.18994E+00-5.22459E+00 5.00000E-01
 -1       257 3.41693E+00-4.05332E+00 1.45000E+00
 -1       258 1.95918E+00-1.32279E+00 1.45000E+00
 -1       259 4.05332E+00-3.41693E+00 1.45000E+00
 -1       260 6.06990E+00-5.43351E+00 1.45000E+00
 -1       261 7.52765E+00-8.16405E+00 1.45000E+00
 -1       262 8.16405E+00-7.52765E+00 1.45000E+00
 -1       263 1.32279E+00-1.95918E+00 1.45000E+00
 -1       264 3.41693E+00-4.05332E+00 5.00000E-01
 -1       265 5.43351E+00-6.06990E+00 1.45000E+00
 -1       266 3.09873E+00-4.37152E+00 5.00000E-01
 -1       267 3.09873E+00-4.37152E+00 1.45000E+00
 -1       268 4.37152E+00-3.09873E+00 1.45000E+00
 -1       269 5.11531E+00-6.38810E+00 1.45000E+00
 -1       270 6.38810E+00-5.11531E+00 1.45000E+00
 -1       271 4.37152E+00-3.09873E+00 5.00000E-01
 -1       272 2.31626E+00-4.72349E-01 1.45000E+00
 -1       273 1.97184E+00-1.30384E+00 1.45000E+00
 -1       274 5.05239E+00-1.60569E+00 1.45000E+00
 -1       275 7.34276E+00-3.52855E+00 1.45000E+00
 -1       276 1.04233E+01-3.83040E+00 1.45000E+00
 -1       277 1.00789E+01-4.66189E+00 1.45000E+00
 -1       278 7.68717E+00-2.69706E+00 1.45000E+00
 -1       279 4.70797E+00-2.43718E+00 1.45000E+00
 -1       280 4.70797E+00-2.43718E+00 5.00000E-01
 -1       281 4.53576E+00-2.85293E+00 1.45000E+00
 -1       282 7.34276E+00-3.52855E+00 5.00000E-01
 -1       283 7.85938E+00-2.28131E+00 1.45000E+00
 -1       284 7.17055E+00-3.94429E+00 1.45000E+00
 -1       285 7.85938E+00-2.28131E+00 5.00000E-01
 -1       286 5.22459E+00-1.18994E+00 1.45000E+00
 -1       287 1.50000E+01 0.00000E+00-5.00000E-01
 -1       288-5.74025E+00-1.38582E+01 5.00000E-01
 -1       289-2.92635E+00-1.47118E+01 5.00000E-01
 -1       290-5.74025E+00-1.38582E+01-5.00000E-01
 -1       291 1.06066E+01 1.06066E+01-5.00000E-01
 -1       292 1.24720E+01 8.33355E+00-5.00000E-01
 -1       293-1.38582E+01 5.74025E+00-5.00000E-01
 -1       294 1.06066E+01-1.06066E+01 5.00000E-01
 -1       295 8.33355E+00 1.24720E+01-5.00000E-01
 -1       296 5.74025E+00 1.38582E+01-5.00000E-01
 -1       297 0.00000E+00 1.50000E+01 5.00000E-01
 -1       298-1.50000E+01 0.00000E+00-5.00000E-01
 -1       299-1.06066E+01 1.06066E+01-5.00000E-01
 -1       300-1.06066E+01 1.06066E+01 5.00000E-01
 -1       301-1.24720E+01 8.33355E+00-5.00000E-01
 -1       302-5.74025E+00 1.38582E+01-5.00000E-01
 -1       303 1.47118E+01 2.92635E+00-5.00000E-01
 -1       304 1.47118E+01-2.92635E+00-5.00000E-01
 -1       305 5.74025E+00-1.38582E+01 5.00000E-01
 -1       306 2.92635E+00-1.47118E+01-5.00000E-01
 -1       307 5.74025E+00-1.38582E+01-5.00000E-01
 -1       308 8.33355E+00-1.24720E+01 5.00000E-01
 -1       309 0.00000E+00-1.50000E+01 5.00000E-01
 -1       310-8.33355E+00-1.24720E+01 5.00000E-01
 -1       311-1.38582E+01-5.74025E+00 5.00000E-01
 -1       312 1.38582E+01 5.74025E+00-5.00000E-01
 -1       313 8.33355E+00-1.24720E+01-5.00000E-01
 -1       314 2.92635E+00 1.47118E+01-5.00000E-01
 -1       315 0.00000E+00-1.50000E+01-5.00000E-01
 -1       316 0.00000E+00 1.50000E+01-5.00000E-01
 -1       317-2.92635E+00-1.47118E+01-5.00000E-01
 -1       318-2.92635E+00 1.47118E+01-5.00000E-01
 -1       319-8.33355E+00-1.24720E+01-5.00000E-01
 -1       320-8.33355E+00 1.24720E+01-5.00000E-01
 -1       321-1.24720E+01-8.33355E+00-5.00000E-01
 -1       322-1.47118E+01-2.92635E+00-5.00000E-01
 -1       323-1.06066E+01-1.06066E+01-5.00000E-01
 -1       324-7.68717E+00 2.69706E+00 5.00000E-01
 -1       325-8.13414E+00 9.00000E-01 5.00000E-01
 -1       326-1.10957E+01 4.50000E-01 5.00000E-01
 -1       327-8.13414E+00 4.50000E-01 5.00000E-01
 -1       328-1.00789E+01 4.66189E+00 5.00000E-01
 -1       329-1.04233E+01-3.83040E+00 5.00000E-01
 -1       330-7.85938E+00-2.28131E+00 5.00000E-01
 -1       331-8.13414E+00-9.00000E-01 5.00000E-01
 -1       332-1.24720E+01-8.33355E+00 5.00000E-01
 -1       333-1.10957E+01-4.50000E-01 5.00000E-01
 -1       334-1.50000E+01 0.00000E+00 5.00000E-01
 -1       335-8.16405E+00 7.52765E+00 5.00000E-01
 -1       336-1.24720E+01 8.33355E+00 5.00000E-01
 -1       337-5.28227E+00 9.00000E-01 5.00000E-01
 -1       338-5.22459E+00 1.18994E+00 5.00000E-01
 -1       339-7.17055E+00-3.94429E+00 5.00000E-01
 -1       340-8.16405E+00-7.52765E+00 5.00000E-01
 -1       341-1.06066E+01-1.06066E+01 5.00000E-01
 -1       342-1.00789E+01-4.66189E+00 5.00000E-01
 -1       343-4.53576E+00 2.85293E+00 5.00000E-01
 -1       344-6.38810E+00 5.11531E+00 5.00000E-01
 -1       345-7.17055E+00 3.94429E+00 5.00000E-01
 -1       346-3.52855E+00-7.34276E+00 5.00000E-01
 -1       347-4.53576E+00-2.85293E+00 5.00000E-01
 -1       348-3.94429E+00 7.17055E+00 5.00000E-01
 -1       349-3.09873E+00 4.37152E+00 5.00000E-01
 -1       350-2.31626E+00 4.72349E-01 5.00000E-01
 -1       351-1.95918E+00 1.32279E+00 5.00000E-01
 -1       352-1.95918E+00-1.32279E+00 5.00000E-01
 -1       353-4.05332E+00 3.41693E+00 5.00000E-01
 -1       354-4.50000E-01-2.32070E+00 5.00000E-01
 -1       355-9.00000E-01-5.28227E+00 5.00000E-01
 -1       356-1.60569E+00-5.05239E+00 5.00000E-01
 -1       357-1.32279E+00 1.95918E+00 5.00000E-01
 -1       358-1.32279E+00-1.95918E+00 5.00000E-01
 -1       359-2.43718E+00-4.70797E+00 5.00000E-01
 -1       360-4.37152E+00-3.09873E+00 5.00000E-01
 -1       361-1.97184E+00-1.30384E+00 5.00000E-01
 -1       362-4.70797E+00-2.43718E+00 5.00000E-01
 -1       363-2.32070E+00 4.50000E-01 5.00000E-01
 -1       364-2.32070E+00-4.50000E-01 5.00000E-01
 -1       365-5.28227E+00-4.50000E-01 5.00000E-01
 -1       366-5.11531E+00-6.38810E+00 5.00000E-01
 -1       367-4.72349E-01 2.31626E+00 5.00000E-01
 -1       368 4.50000E-01 2.32070E+00 5.00000E-01
 -1       369 4.50000E-01-2.32070E+00 5.00000E-01
 -1       370 4.50000E-01-5.28227E+00 5.00000E-01
 -1       371 1.18994E+00 5.22459E+00 5.00000E-01
 -1       372 1.60569E+00 5.05239E+00 5.00000E-01
 -1       373 3.52855E+00 7.34276E+00 5.00000E-01
 -1       374 3.94429E+00 7.17055E+00 5.00000E-01
 -1       375 4.05332E+00-3.41693E+00 5.00000E-01
 -1       376 1.95918E+00 1.32279E+00 5.00000E-01
 -1       377 1.97184E+00-1.30384E+00 5.00000E-01
 -1       378 1.95918E+00-1.32279E+00 5.00000E-01
 -1       379 1.32279E+00 1.95918E+00 5.00000E-01
 -1       380 3.94429E+00-7.17055E+00 5.00000E-01
 -1       381 2.85293E+00 4.53576E+00 5.00000E-01
 -1       382 5.11531E+00-6.38810E+00 5.00000E-01
 -1       383 4.66189E+00-1.00789E+01 5.00000E-01
 -1       384 5.28227E+00-9.00000E-01 5.00000E-01
 -1       385 5.05239E+00-1.60569E+00 5.00000E-01
 -1       386 2.31626E+00-4.72349E-01 5.00000E-01
 -1       387 4.53576E+00-2.85293E+00 5.00000E-01
 -1       388 7.17055E+00-3.94429E+00 5.00000E-01
 -1       389 6.38810E+00-5.11531E+00 5.00000E-01
 -1       390 5.22459E+00-1.18994E+00 5.00000E-01
 -1       391 8.13414E+00 9.00000E-01 5.00000E-01
 -1       392 7.85938E+00 2.28131E+00 5.00000E-01
 -1       393 4.66189E+00 1.00789E+01 5.00000E-01
 -1       394 8.33355E+00 1.24720E+01 5.00000E-01
 -1       395 5.74025E+00 1.38582E+01 5.00000E-01
 -1       396 2.28131E+00 7.85938E+00 5.00000E-01
 -1       397 2.92635E+00 1.47118E+01 5.00000E-01
 -1       398-4.50000E-01 1.10957E+01 5.00000E-01
 -1       399-2.28131E+00 7.85938E+00 5.00000E-01
 -1       400-1.18994E+00 5.22459E+00 5.00000E-01
 -1       401-5.74025E+00 1.38582E+01 5.00000E-01
 -1       402-2.92635E+00 1.47118E+01 5.00000E-01
 -1       403-4.66189E+00 1.00789E+01 5.00000E-01
 -1       404-7.52765E+00 8.16405E+00 5.00000E-01
 -1       405-8.33355E+00 1.24720E+01 5.00000E-01
 -1       406 1.38582E+01 5.74025E+00 5.00000E-01
 -1       407 8.16405E+00 7.52765E+00 5.00000E-01
 -1       408 1.04233E+01 3.83040E+00 5.00000E-01
 -1       409 1.47118E+01 2.92635E+00 5.00000E-01
 -1       410 1.24720E+01 8.33355E+00 5.00000E-01
 -1       411 1.50000E+01 0.00000E+00 5.00000E-01
 -1       412 1.47118E+01-2.92635E+00 5.00000E-01
 -1       413 1.06066E+01 1.06066E+01 5.00000E-01
 -1       414 1.10957E+01 4.50000E-01 5.00000E-01
 -1       415 1.04233E+01-3.83040E+00 5.00000E-01
 -1       416 1.00789E+01-4.66189E+00 5.00000E-01
 -1       417 8.13414E+00-4.50000E-01 5.00000E-01
 -1       418 7.68717E+00-2.69706E+00 5.00000E-01
 -1       419 8.16405E+00-7.52765E+00 5.00000E-01
 -1       420 7.52765E+00-8.16405E+00 5.00000E-01
 -1       421 6.06990E+00-5.43351E+00 5.00000E-01
 -1       422 5.43351E+00-6.06990E+00 5.00000E-01
 -1       423 9.00000E-01-8.13414E+00 5.00000E-01
 -1       424 2.92635E+00-1.47118E+01 5.00000E-01
 -1       425-3.83040E+00-1.04233E+01 5.00000E-01
 -1       426-4.50000E-01-1.10957E+01 5.00000E-01
 -1       427-9.00000E-01-8.13414E+00 5.00000E-01
 -1       428-2.28131E+00-7.85938E+00 5.00000E-01
 -1       429-4.66189E+00-1.00789E+01 5.00000E-01
 -1       430 5.28227E+00 9.00000E-01 5.00000E-01
 -1       431 5.22459E+00 1.18994E+00 5.00000E-01
 -1       432 4.53576E+00 2.85293E+00 5.00000E-01
 -1       433 4.05332E+00 3.41693E+00 5.00000E-01
 -1       434 1.97184E+00 1.30384E+00 5.00000E-01
 -1       435 1.32279E+00-1.95918E+00 5.00000E-01
 -1       436 2.85293E+00-4.53576E+00 5.00000E-01
 -1       437 2.43718E+00-4.70797E+00 5.00000E-01
 -1       438 1.30384E+00-1.97184E+00 5.00000E-01
 -1       439-1.38582E+01 5.74025E+00 5.00000E-01
 -1       440-1.47118E+01 2.92635E+00-5.00000E-01
 -1       441-1.47118E+01 2.92635E+00 5.00000E-01
 -1       442 1.24720E+01-8.33355E+00-5.00000E-01
 -1       443 1.24720E+01-8.33355E+00 5.00000E-01
 -1       444 1.06066E+01-1.06066E+01-5.00000E-01
 -1       445 1.38582E+01-5.74025E+00 5.00000E-01
 -1       446 1.38582E+01-5.74025E+00-5.00000E-01
 -1       447-1.47118E+01-2.92635E+00 5.00000E-01
 -1       448-1.38582E+01-5.74025E+00-5.00000E-01
 -1       449 3.80149E+00 4.50000E-01 1.45000E+00
 -1       450 3.80149E+00-4.50000E-01 1.45000E+00
 -1       451 6.70821E+00 9.00000E-01 1.45000E+00
 -1       452 6.70821E+00-9.00000E-01 1.45000E+00
 -1       453 9.61492E+00 4.50000E-01 1.45000E+00
 -1       454 9.61492E+00-4.50000E-01 1.45000E+00
 -1       455 9.61492E+00 4.50000E-01 5.00000E-01
 -1       456 3.80149E+00 4.50000E-01 5.00000E-01
 -1       457 3.80149E+00-4.50000E-01 5.00000E-01
 -1       458 9.61492E+00-4.50000E-01 5.00000E-01
 -1       459 6.70821E+00-9.00000E-01 5.00000E-01
 -1       460 6.70821E+00 9.00000E-01 5.00000E-01
 -1       461 9.05523E+00 3.26373E+00 1.45000E+00
 -1       462 8.71083E+00 4.09522E+00 1.45000E+00
 -1       463 6.54199E+00 1.73563E+00 1.45000E+00
 -1       464 5.85316E+00 3.39861E+00 1.45000E+00
 -1       465 3.68432E+00 1.03902E+00 1.45000E+00
 -1       466 3.33991E+00 1.87051E+00 1.45000E+00
 -1       467 8.71083E+00 4.09522E+00 5.00000E-01
 -1       468 3.33991E+00 1.87051E+00 5.00000E-01
 -1       469 3.68432E+00 1.03902E+00 5.00000E-01
 -1       470 9.05523E+00 3.26373E+00 5.00000E-01
 -1       471 6.54199E+00 1.73563E+00 5.00000E-01
 -1       472 5.85316E+00 3.39861E+00 5.00000E-01
 -1       473 7.11697E+00 6.48058E+00 1.45000E+00
 -1       474 6.48058E+00 7.11697E+00 1.45000E+00
 -1       475 5.37981E+00 4.10702E+00 1.45000E+00
 -1       476 4.10702E+00 5.37981E+00 1.45000E+00
 -1       477 3.00625E+00 2.36986E+00 1.45000E+00
 -1       478 2.36986E+00 3.00625E+00 1.45000E+00
 -1       479 6.48058E+00 7.11697E+00 5.00000E-01
 -1       480 2.36986E+00 3.00625E+00 5.00000E-01
 -1       481 3.00625E+00 2.36986E+00 5.00000E-01
 -1       482 7.11697E+00 6.48058E+00 5.00000E-01
 -1       483 5.37981E+00 4.10702E+00 5.00000E-01
 -1       484 4.10702E+00 5.37981E+00 5.00000E-01
 -1       485 1.73563E+00 6.54199E+00 1.45000E+00
 -1       486 4.09522E+00 8.71083E+00 1.45000E+00
 -1       487 3.26373E+00 9.05523E+00 1.45000E+00
 -1       488 1.87051E+00 3.33991E+00 1.45000E+00
 -1       489 1.03902E+00 3.68432E+00 1.45000E+00
 -1       490 3.39861E+00 5.85316E+00 1.45000E+00
 -1       491 3.26373E+00 9.05523E+00 5.00000E-01
 -1       492 1.03902E+00 3.68432E+00 5.00000E-01
 -1       493 1.87051E+00 3.33991E+00 5.00000E-01
 -1       494 4.09522E+00 8.71083E+00 5.00000E-01
 -1       495 3.39861E+00 5.85316E+00 5.00000E-01
 -1       496 1.73563E+00 6.54199E+00 5.00000E-01
 -1       497-9.00000E-01 6.70821E+00 1.45000E+00
 -1       498 4.50000E-01 9.61492E+00 1.45000E+00
 -1       499-4.50000E-01 9.61492E+00 1.45000E+00
 -1       500 4.50000E-01 3.80149E+00 1.45000E+00
 -1       501-4.50000E-01 3.80149E+00 1.45000E+00
 -1       502 9.00000E-01 6.70821E+00 1.45000E+00
 -1       503-4.50000E-01 9.61492E+00 5.00000E-01
 -1       504-4.50000E-01 3.80149E+00 5.00000E-01
 -1       505 4.50000E-01 3.80149E+00 5.00000E-01
 -1       506 4.50000E-01 9.61492E+00 5.00000E-01
 -1       507 9.00000E-01 6.70821E+00 5.00000E-01
 -1       508-9.00000E-01 6.70821E+00 5.00000E-01
 -1       509-1.73563E+00 6.54199E+00 1.45000E+00
 -1       510-1.03902E+00 3.68432E+00 1.45000E+00
 -1       511-1.87051E+00 3.33991E+00 1.45000E+00
 -1       512-3.26373E+00 9.05523E+00 1.45000E+00
 -1       513-4.09522E+00 8.71083E+00 1.45000E+00
 -1       514-3.39861E+00 5.85316E+00 1.45000E+00
 -1       515-4.09522E+00 8.71083E+00 5.00000E-01
 -1       516-1.87051E+00 3.33991E+00 5.00000E-01
 -1       517-1.03902E+00 3.68432E+00 5.00000E-01
 -1       518-3.26373E+00 9.05523E+00 5.00000E-01
 -1       519-1.73563E+00 6.54199E+00 5.00000E-01
 -1       520-3.39861E+00 5.85316E+00 5.00000E-01
 -1       521-6.48058E+00 7.11697E+00 1.45000E+00
 -1       522-7.11697E+00 6.48058E+00 1.45000E+00
 -1       523-4.10702E+00 5.37981E+00 1.45000E+00
 -1       524-5.37981E+00 4.10702E+00 1.45000E+00
 -1       525-2.36986E+00 3.00625E+00 1.45000E+00
 -1       526-3.00625E+00 2.36986E+00 1.45000E+00
 -1       527-7.11697E+00 6.48058E+00 5.00000E-01
 -1       528-3.00625E+00 2.36986E+00 5.00000E-01
 -1       529-2.36986E+00 3.00625E+00 5.00000E-01
 -1       530-6.48058E+00 7.11697E+00 5.00000E-01
 -1       531-4.10702E+00 5.37981E+00 5.00000E-01
 -1       532-5.37981E+00 4.10702E+00 5.00000E-01
 -1       533-8.71083E+00 4.09522E+00 1.45000E+00
 -1       534-9.05523E+00 3.26373E+00 1.45000E+00
 -1       535-5.85316E+00 3.39861E+00 1.45000E+00
 -1       536-6.54199E+00 1.73563E+00 1.45000E+00
 -1       537-3.33991E+00 1.87051E+00 1.45000E+00
 -1       538-3.68432E+00 1.03902E+00 1.45000E+00
 -1       539-9.05523E+00 3.26373E+00 5.00000E-01
 -1       540-3.68432E+00 1.03902E+00 5.00000E-01
 -1       541-3.33991E+00 1.87051E+00 5.00000E-01
 -1       542-8.71083E+00 4.09522E+00 5.00000E-01
 -1       543-5.85316E+00 3.39861E+00 5.00000E-01
 -1       544-6.54199E+00 1.73563E+00 5.00000E-01
 -1       545-9.61492E+00 4.50000E-01 1.45000E+00
 -1       546-9.61492E+00-4.50000E-01 1.45000E+00
 -1       547-6.70821E+00 9.00000E-01 1.45000E+00
 -1       548-6.70821E+00-9.00000E-01 1.45000E+00
 -1       549-3.80149E+00 4.50000E-01 1.45000E+00
 -1       550-3.80149E+00-4.50000E-01 1.45000E+00
 -1       551-9.61492E+00-4.50000E-01 5.00000E-01
 -1       552-3.80149E+00-4.50000E-01 5.00000E-01
 -1       553-3.80149E+00 4.50000E-01 5.00000E-01
 -1       554-9.61492E+00 4.50000E-01 5.00000E-01
 -1       555-6.70821E+00 9.00000E-01 5.00000E-01
 -1       556-6.70821E+00-9.00000E-01 5.00000E-01
 -1       557-3.33991E+00-1.87051E+00 1.45000E+00
 -1       558-3.68432E+00-1.03902E+00 1.45000E+00
 -1       559-5.85316E+00-3.39861E+00 1.45000E+00
 -1       560-6.54199E+00-1.73563E+00 1.45000E+00
 -1       561-8.71083E+00-4.09522E+00 1.45000E+00
 -1       562-9.05523E+00-3.26373E+00 1.45000E+00
 -1       563-8.71083E+00-4.09522E+00 5.00000E-01
 -1       564-3.33991E+00-1.87051E+00 5.00000E-01
 -1       565-3.68432E+00-1.03902E+00 5.00000E-01
 -1       566-9.05523E+00-3.26373E+00 5.00000E-01
 -1       567-6.54199E+00-1.73563E+00 5.00000E-01
 -1       568-5.85316E+00-3.39861E+00 5.00000E-01
 -1       569-2.36986E+00-3.00625E+00 1.45000E+00
 -1       570-3.00625E+00-2.36986E+00 1.45000E+00
 -1       571-4.10702E+00-5.37981E+00 1.45000E+00
 -1       572-5.37981E+00-4.10702E+00 1.45000E+00
 -1       573-6.48058E+00-7.11697E+00 1.45000E+00
 -1       574-7.11697E+00-6.48058E+00 1.45000E+00
 -1       575-6.48058E+00-7.11697E+00 5.00000E-01
 -1       576-2.36986E+00-3.00625E+00 5.00000E-01
 -1       577-3.00625E+00-2.36986E+00 5.00000E-01
 -1       578-7.11697E+00-6.48058E+00 5.00000E-01
 -1       579-5.37981E+00-4.10702E+00 5.00000E-01
 -1       580-4.10702E+00-5.37981E+00 5.00000E-01
 -1       581-3.39861E+00-5.85316E+00 1.45000E+00
 -1       582-1.03902E+00-3.68432E+00 1.45000E+00