    1C
    1U meshsolid_t.inp                                                  
    1UUSER                                                              
    1UDATE              05.july.2016                                    
    1UTIME              09:22:38                                        
    1UHOST                                                              
    1UPGM               CalculiX                                        
    1UVERSION           Version 2.10                             
    1UCOMPILETIME       Sa 5. Mär 12:23:33 CET 2016                    
    1UDIR                                                               
    1UDBN                                                               
    1UMAT    1PDMS                                                      
    2C                          3737                                     1
 -1         1 2.32070E+00-4.61617E-01 5.00000E-01
 -1         2 2.32070E+00-4.61617E-01 2.25000E+00
 -1         3-5.06195E+00 1.58259E+00 2.25000E+00
 -1         4-3.55164E+00-7.33319E+00 2.25000E+00
 -1         5-2.89912E+00 4.51663E+00 2.25000E+00
 -1         6-3.99049E+00 7.15142E+00 2.25000E+00
 -1         7-5.41583E+00 6.08758E+00 2.25000E+00
 -1         8-3.06338E+00 4.40688E+00 2.25000E+00
 -1         9-4.07100E+00 3.39925E+00 2.25000E+00
 -1        10-4.40688E+00 3.06338E+00 2.25000E+00
 -1        11-5.28227E+00 4.74999E-01 2.25000E+00
 -1        12-5.28227E+00-4.74999E-01 2.25000E+00
 -1        13-2.32070E+00-4.61617E-01 2.25000E+00
 -1        14-2.38798E+00 4.74999E-01 2.25000E+00
 -1        15-2.38798E+00-4.74999E-01 2.25000E+00
 -1        16-1.14375E+00-5.24373E+00 2.25000E+00
 -1        17-2.02443E+00 1.35268E+00 2.25000E+00
 -1        18-4.69840E+00 2.46028E+00 2.25000E+00
 -1        19-1.14375E+00 5.24373E+00 2.25000E+00
 -1        20 4.68498E+00 1.00693E+01 2.25000E+00
 -1        21 2.67396E+00 7.69674E+00 2.25000E+00
 -1        22 1.58259E+00 5.06195E+00 2.25000E+00
 -1        23 1.31457E+00 1.96740E+00 2.25000E+00
 -1        24 4.74999E-01 2.38798E+00 2.25000E+00
 -1        25 4.07100E+00 3.39925E+00 2.25000E+00
 -1        26 1.35268E+00 2.02443E+00 2.25000E+00
 -1        27 2.38798E+00 4.74999E-01 2.25000E+00
 -1        28 2.32070E+00 4.61617E-01 2.25000E+00
 -1        29 2.38798E+00-4.74999E-01 2.25000E+00
 -1        30 8.13414E+00 9.50000E-01 2.25000E+00
 -1        31 5.28227E+00 4.74999E-01 2.25000E+00
 -1        32 8.13414E+00-9.50000E-01 2.25000E+00
 -1        33 1.10957E+01-4.74999E-01 2.25000E+00
 -1        34 8.13414E+00 4.74999E-01 2.25000E+00
 -1        35 3.55164E+00-7.33319E+00 2.25000E+00
 -1        36 6.08758E+00 5.41583E+00 2.25000E+00
 -1        37 5.41583E+00 6.08758E+00 2.25000E+00
 -1        38 5.06195E+00 1.58259E+00 2.25000E+00
 -1        39 4.40688E+00 3.06338E+00 2.25000E+00
 -1        40 3.39925E+00 4.07100E+00 2.25000E+00
 -1        41 2.46028E+00-4.69840E+00 2.25000E+00
 -1        42 1.58259E+00-5.06195E+00 2.25000E+00
 -1        43 4.74999E-01-2.38798E+00 2.25000E+00
 -1        44-4.74999E-01-2.38798E+00 2.25000E+00
 -1        45-4.74999E-01-5.28227E+00 2.25000E+00
 -1        46 4.69840E+00-2.46028E+00 2.25000E+00
 -1        47 1.96740E+00-1.31457E+00 2.25000E+00
 -1        48 7.69674E+00-2.67396E+00 2.25000E+00
 -1        49 5.06195E+00-1.58259E+00 2.25000E+00
 -1        50 3.39925E+00-4.07100E+00 2.25000E+00
 -1        51 1.35268E+00-2.02443E+00 2.25000E+00
 -1        52 4.07100E+00-3.39925E+00 2.25000E+00
 -1        53 5.41583E+00-6.08758E+00 2.25000E+00
 -1        54 3.06338E+00-4.40688E+00 2.25000E+00
 -1        55 6.08758E+00-5.41583E+00 2.25000E+00
 -1        56 7.50997E+00-8.18172E+00 2.25000E+00
 -1        57 1.14375E+00-5.24373E+00 2.25000E+00
 -1        58-9.50000E-01-5.28227E+00 2.25000E+00
 -1        59-1.35268E+00-2.02443E+00 2.25000E+00
 -1        60 4.74999E-01 1.10957E+01 2.25000E+00
 -1        61-4.74999E-01 8.13414E+00 2.25000E+00
 -1        62 4.61617E-01 2.32070E+00 2.25000E+00
 -1        63-1.58259E+00 5.06195E+00 2.25000E+00
 -1        64-3.55164E+00 7.33319E+00 2.25000E+00
 -1        65-4.68498E+00 1.00693E+01 2.25000E+00
 -1        66 4.74999E-01 8.13414E+00 2.25000E+00
 -1        67 4.74999E-01 5.28227E+00 2.25000E+00
 -1        68 9.50000E-01-8.13414E+00 2.25000E+00
 -1        69-1.96740E+00-1.31457E+00 2.25000E+00
 -1        70-3.39925E+00-4.07100E+00 2.25000E+00
 -1        71-1.35268E+00 2.02443E+00 2.25000E+00
 -1        72-1.96740E+00 1.31457E+00 2.25000E+00
 -1        73-1.31457E+00 1.96740E+00 2.25000E+00
 -1        74-3.39925E+00 4.07100E+00 2.25000E+00
 -1        75-5.07995E+00-6.42346E+00 2.25000E+00
 -1        76-6.08758E+00-5.41583E+00 2.25000E+00
 -1        77-4.40688E+00-3.06338E+00 2.25000E+00
 -1        78-4.69840E+00-2.46028E+00 2.25000E+00
 -1        79-5.06195E+00-1.58259E+00 2.25000E+00
 -1        80-5.24373E+00-1.14375E+00 2.25000E+00
 -1        81-7.33319E+00-3.55164E+00 2.25000E+00
 -1        82-7.15142E+00-3.99049E+00 2.25000E+00
 -1        83-7.69674E+00-2.67396E+00 2.25000E+00
 -1        84-1.00693E+01 4.68498E+00 2.25000E+00
 -1        85-7.69674E+00 2.67396E+00 2.25000E+00
 -1        86-1.04329E+01 3.80730E+00 2.25000E+00
 -1        87-7.50997E+00 8.18172E+00 2.25000E+00
 -1        88-5.28227E+00 9.50000E-01 2.25000E+00
 -1        89-8.13414E+00 4.74999E-01 2.25000E+00
 -1        90-1.00693E+01-4.68498E+00 2.25000E+00
 -1        91 1.10957E+01 4.74999E-01 2.25000E+00
 -1        92 5.28227E+00-4.74999E-01 2.25000E+00
 -1        93 5.28227E+00 4.74999E-01 5.00000E-01
 -1        94 2.38798E+00 4.74999E-01 5.00000E-01
 -1        95 8.13414E+00-4.74999E-01 2.25000E+00
 -1        96 5.28227E+00 9.50000E-01 2.25000E+00
 -1        97 5.28227E+00-9.50000E-01 2.25000E+00
 -1        98 1.96740E+00 1.31457E+00 2.25000E+00
 -1        99 1.96740E+00 1.31457E+00 5.00000E-01
 -1       100 1.04329E+01 3.80730E+00 2.25000E+00
 -1       101 1.00693E+01 4.68498E+00 2.25000E+00
 -1       102 7.69674E+00 2.67396E+00 5.00000E-01
 -1       103 7.69674E+00 2.67396E+00 2.25000E+00
 -1       104 1.00693E+01 4.68498E+00 5.00000E-01
 -1       105 4.69840E+00 2.46028E+00 2.25000E+00
 -1       106 5.24373E+00 1.14375E+00 2.25000E+00
 -1       107 4.51663E+00 2.89912E+00 2.25000E+00
 -1       108 4.51663E+00 2.89912E+00 5.00000E-01
 -1       109 7.87852E+00 2.23512E+00 5.00000E-01
 -1       110 7.15142E+00 3.99049E+00 2.25000E+00
 -1       111 7.33319E+00 3.55164E+00 2.25000E+00
 -1       112 7.33319E+00 3.55164E+00 5.00000E-01
 -1       113 7.87852E+00 2.23512E+00 2.25000E+00
 -1       114 2.02443E+00 1.35268E+00 2.25000E+00
 -1       115 4.07100E+00 3.39925E+00 5.00000E-01
 -1       116 8.18172E+00 7.50997E+00 2.25000E+00
 -1       117 7.50997E+00 8.18172E+00 2.25000E+00
 -1       118 3.39925E+00 4.07100E+00 5.00000E-01
 -1       119 1.35268E+00 2.02443E+00 5.00000E-01
 -1       120 3.06338E+00 4.40688E+00 5.00000E-01
 -1       121 6.08758E+00 5.41583E+00 5.00000E-01
 -1       122 5.07995E+00 6.42346E+00 2.25000E+00
 -1       123 3.06338E+00 4.40688E+00 2.25000E+00
 -1       124 6.42346E+00 5.07995E+00 2.25000E+00
 -1       125 4.61617E-01 2.32070E+00 5.00000E-01
 -1       126 4.68498E+00 1.00693E+01 5.00000E-01
 -1       127 3.80730E+00 1.04329E+01 2.25000E+00
 -1       128 3.55164E+00 7.33319E+00 5.00000E-01
 -1       129 2.67396E+00 7.69674E+00 5.00000E-01
 -1       130 3.80730E+00 1.04329E+01 5.00000E-01
 -1       131 2.89912E+00 4.51663E+00 2.25000E+00
 -1       132 2.46028E+00 4.69840E+00 2.25000E+00
 -1       133 3.55164E+00 7.33319E+00 2.25000E+00
 -1       134 3.99049E+00 7.15142E+00 2.25000E+00
 -1       135 2.23512E+00 7.87852E+00 2.25000E+00
 -1       136 1.14375E+00 5.24373E+00 2.25000E+00
 -1       137 4.74999E-01 1.10957E+01 5.00000E-01
 -1       138-4.74999E-01 1.10957E+01 2.25000E+00
 -1       139-4.74999E-01 1.10957E+01 5.00000E-01
 -1       140-4.74999E-01 5.28227E+00 2.25000E+00
 -1       141 9.50000E-01 5.28227E+00 2.25000E+00
 -1       142 9.50000E-01 8.13414E+00 2.25000E+00
 -1       143-9.50000E-01 8.13414E+00 2.25000E+00
 -1       144-4.74999E-01 8.13414E+00 5.00000E-01
 -1       145-9.50000E-01 5.28227E+00 2.25000E+00
 -1       146 9.50000E-01 5.28227E+00 5.00000E-01
 -1       147-4.61617E-01 2.32070E+00 2.25000E+00
 -1       148-3.80730E+00 1.04329E+01 2.25000E+00
 -1       149-4.68498E+00 1.00693E+01 5.00000E-01
 -1       150-4.74999E-01 2.38798E+00 2.25000E+00
 -1       151-4.74999E-01 2.38798E+00 5.00000E-01
 -1       152-2.67396E+00 7.69674E+00 2.25000E+00
 -1       153-2.67396E+00 7.69674E+00 5.00000E-01
 -1       154-1.14375E+00 5.24373E+00 5.00000E-01
 -1       155-2.46028E+00 4.69840E+00 2.25000E+00
 -1       156-2.89912E+00 4.51663E+00 5.00000E-01
 -1       157-2.46028E+00 4.69840E+00 5.00000E-01
 -1       158-2.23512E+00 7.87852E+00 2.25000E+00
 -1       159-2.23512E+00 7.87852E+00 5.00000E-01
 -1       160-8.18172E+00 7.50997E+00 2.25000E+00
 -1       161-6.08758E+00 5.41583E+00 2.25000E+00
 -1       162-4.07100E+00 3.39925E+00 5.00000E-01
 -1       163-3.06338E+00 4.40688E+00 5.00000E-01
 -1       164-6.42346E+00 5.07995E+00 2.25000E+00
 -1       165-4.40688E+00 3.06338E+00 5.00000E-01
 -1       166-6.42346E+00 5.07995E+00 5.00000E-01
 -1       167-5.07995E+00 6.42346E+00 2.25000E+00
 -1       168-5.07995E+00 6.42346E+00 5.00000E-01
 -1       169-1.96740E+00 1.31457E+00 5.00000E-01
 -1       170-2.32070E+00 4.61617E-01 2.25000E+00
 -1       171-2.32070E+00 4.61617E-01 5.00000E-01
 -1       172-1.00693E+01 4.68498E+00 5.00000E-01
 -1       173-2.02443E+00 1.35268E+00 5.00000E-01
 -1       174-7.33319E+00 3.55164E+00 5.00000E-01
 -1       175-7.69674E+00 2.67396E+00 5.00000E-01
 -1       176-4.51663E+00 2.89912E+00 2.25000E+00
 -1       177-5.24373E+00 1.14375E+00 2.25000E+00
 -1       178-5.24373E+00 1.14375E+00 5.00000E-01
 -1       179-7.15142E+00 3.99049E+00 5.00000E-01
 -1       180-7.15142E+00 3.99049E+00 2.25000E+00
 -1       181-7.33319E+00 3.55164E+00 2.25000E+00
 -1       182-7.87852E+00 2.23512E+00 2.25000E+00
 -1       183-4.51663E+00 2.89912E+00 5.00000E-01
 -1       184-1.10957E+01-4.74999E-01 2.25000E+00
 -1       185-2.38798E+00 4.74999E-01 5.00000E-01
 -1       186-1.10957E+01 4.74999E-01 2.25000E+00
 -1       187-1.10957E+01 4.74999E-01 5.00000E-01
 -1       188-5.28227E+00 9.50000E-01 5.00000E-01
 -1       189-5.28227E+00 4.74999E-01 5.00000E-01
 -1       190-5.28227E+00-9.50000E-01 2.25000E+00
 -1       191-8.13414E+00-4.74999E-01 2.25000E+00
 -1       192-8.13414E+00-9.50000E-01 2.25000E+00
 -1       193-8.13414E+00-9.50000E-01 5.00000E-01
 -1       194-5.28227E+00-9.50000E-01 5.00000E-01
 -1       195-8.13414E+00 9.50000E-01 2.25000E+00
 -1       196-2.32070E+00-4.61617E-01 5.00000E-01
 -1       197-1.04329E+01-3.80730E+00 2.25000E+00
 -1       198-7.69674E+00-2.67396E+00 5.00000E-01
 -1       199-1.04329E+01-3.80730E+00 5.00000E-01
 -1       200-5.24373E+00-1.14375E+00 5.00000E-01
 -1       201-4.69840E+00-2.46028E+00 5.00000E-01
 -1       202-7.33319E+00-3.55164E+00 5.00000E-01
 -1       203-4.51663E+00-2.89912E+00 2.25000E+00
 -1       204-7.87852E+00-2.23512E+00 2.25000E+00
 -1       205-8.18172E+00-7.50997E+00 2.25000E+00
 -1       206-2.02443E+00-1.35268E+00 2.25000E+00
 -1       207-7.50997E+00-8.18172E+00 2.25000E+00
 -1       208-3.39925E+00-4.07100E+00 5.00000E-01
 -1       209-4.07100E+00-3.39925E+00 2.25000E+00
 -1       210-4.07100E+00-3.39925E+00 5.00000E-01
 -1       211-6.42346E+00-5.07995E+00 2.25000E+00
 -1       212-6.08758E+00-5.41583E+00 5.00000E-01
 -1       213-5.07995E+00-6.42346E+00 5.00000E-01
 -1       214-5.41583E+00-6.08758E+00 2.25000E+00
 -1       215-3.06338E+00-4.40688E+00 2.25000E+00
 -1       216-6.42346E+00-5.07995E+00 5.00000E-01
 -1       217-4.61617E-01-2.32070E+00 2.25000E+00
 -1       218-1.31457E+00-1.96740E+00 2.25000E+00
 -1       219-3.55164E+00-7.33319E+00 5.00000E-01
 -1       220-4.68498E+00-1.00693E+01 5.00000E-01
 -1       221-4.68498E+00-1.00693E+01 2.25000E+00
 -1       222-3.80730E+00-1.04329E+01 2.25000E+00
 -1       223-2.67396E+00-7.69674E+00 5.00000E-01
 -1       224-2.67396E+00-7.69674E+00 2.25000E+00
 -1       225-3.80730E+00-1.04329E+01 5.00000E-01
 -1       226-4.74999E-01-2.38798E+00 5.00000E-01
 -1       227-2.46028E+00-4.69840E+00 5.00000E-01
 -1       228-2.46028E+00-4.69840E+00 2.25000E+00
 -1       229-1.58259E+00-5.06195E+00 2.25000E+00
 -1       230-3.99049E+00-7.15142E+00 2.25000E+00
 -1       231-2.23512E+00-7.87852E+00 2.25000E+00
 -1       232-2.23512E+00-7.87852E+00 5.00000E-01
 -1       233-2.89912E+00-4.51663E+00 2.25000E+00
 -1       234-3.99049E+00-7.15142E+00 5.00000E-01
 -1       235 4.74999E-01-1.10957E+01 2.25000E+00
 -1       236 4.74999E-01-1.10957E+01 5.00000E-01
 -1       237-4.74999E-01-5.28227E+00 5.00000E-01
 -1       238-4.74999E-01-1.10957E+01 5.00000E-01
 -1       239-4.74999E-01-8.13414E+00 2.25000E+00
 -1       240-4.74999E-01-1.10957E+01 2.25000E+00
 -1       241 4.74999E-01-5.28227E+00 2.25000E+00
 -1       242 4.74999E-01-5.28227E+00 5.00000E-01
 -1       243-4.74999E-01-8.13414E+00 5.00000E-01
 -1       244 4.74999E-01-8.13414E+00 2.25000E+00
 -1       245 4.74999E-01-8.13414E+00 5.00000E-01
 -1       246 9.50000E-01-5.28227E+00 2.25000E+00
 -1       247 9.50000E-01-5.28227E+00 5.00000E-01
 -1       248-9.50000E-01-5.28227E+00 5.00000E-01
 -1       249-9.50000E-01-8.13414E+00 2.25000E+00
 -1       250 4.61617E-01-2.32070E+00 2.25000E+00
 -1       251 4.68498E+00-1.00693E+01 2.25000E+00
 -1       252 3.80730E+00-1.04329E+01 2.25000E+00
 -1       253 3.80730E+00-1.04329E+01 5.00000E-01
 -1       254 2.67396E+00-7.69674E+00 5.00000E-01
 -1       255 2.67396E+00-7.69674E+00 2.25000E+00
 -1       256 2.89912E+00-4.51663E+00 2.25000E+00
 -1       257 2.46028E+00-4.69840E+00 5.00000E-01
 -1       258 2.23512E+00-7.87852E+00 2.25000E+00
 -1       259 2.23512E+00-7.87852E+00 5.00000E-01
 -1       260 3.55164E+00-7.33319E+00 5.00000E-01
 -1       261 3.99049E+00-7.15142E+00 2.25000E+00
 -1       262 3.99049E+00-7.15142E+00 5.00000E-01
 -1       263 2.89912E+00-4.51663E+00 5.00000E-01
 -1       264 1.31457E+00-1.96740E+00 5.00000E-01
 -1       265 1.31457E+00-1.96740E+00 2.25000E+00
 -1       266 8.18172E+00-7.50997E+00 2.25000E+00
 -1       267 6.08758E+00-5.41583E+00 5.00000E-01
 -1       268 2.02443E+00-1.35268E+00 2.25000E+00
 -1       269 3.06338E+00-4.40688E+00 5.00000E-01
 -1       270 4.07100E+00-3.39925E+00 5.00000E-01
 -1       271 4.40688E+00-3.06338E+00 2.25000E+00
 -1       272 5.41583E+00-6.08758E+00 5.00000E-01
 -1       273 6.42346E+00-5.07995E+00 2.25000E+00
 -1       274 5.07995E+00-6.42346E+00 2.25000E+00
 -1       275 5.07995E+00-6.42346E+00 5.00000E-01
 -1       276 1.96740E+00-1.31457E+00 5.00000E-01
 -1       277 1.04329E+01-3.80730E+00 5.00000E-01
 -1       278 1.00693E+01-4.68498E+00 2.25000E+00
 -1       279 2.02443E+00-1.35268E+00 5.00000E-01
 -1       280 4.69840E+00-2.46028E+00 5.00000E-01
 -1       281 7.33319E+00-3.55164E+00 2.25000E+00
 -1       282 1.04329E+01-3.80730E+00 2.25000E+00
 -1       283 4.51663E+00-2.89912E+00 2.25000E+00
 -1       284 5.24373E+00-1.14375E+00 2.25000E+00
 -1       285 5.06195E+00-1.58259E+00 5.00000E-01
 -1       286 7.15142E+00-3.99049E+00 2.25000E+00
 -1       287 7.87852E+00-2.23512E+00 2.25000E+00
 -1       288 7.87852E+00-2.23512E+00 5.00000E-01
 -1       289 1.50000E+01 0.00000E+00-5.00000E-01
 -1       290-2.92635E+00-1.47118E+01 5.00000E-01
 -1       291-5.74025E+00-1.38582E+01-5.00000E-01
 -1       292-2.92635E+00-1.47118E+01-5.00000E-01
 -1       293 1.24720E+01 8.33355E+00 5.00000E-01
 -1       294 1.06066E+01 1.06066E+01-5.00000E-01
 -1       295-1.24720E+01 8.33355E+00 5.00000E-01
 -1       296 1.24720E+01 8.33355E+00-5.00000E-01
 -1       297 2.92635E+00 1.47118E+01 5.00000E-01
 -1       298-1.50000E+01 0.00000E+00-5.00000E-01
 -1       299-8.33355E+00 1.24720E+01 5.00000E-01
 -1       300-5.74025E+00 1.38582E+01-5.00000E-01
 -1       301-2.92635E+00 1.47118E+01 5.00000E-01
 -1       302 1.47118E+01 2.92635E+00-5.00000E-01
 -1       303 2.92635E+00-1.47118E+01 5.00000E-01
 -1       304 5.74025E+00-1.38582E+01 5.00000E-01
 -1       305 5.74025E+00-1.38582E+01-5.00000E-01
 -1       306-1.38582E+01-5.74025E+00 5.00000E-01
 -1       307-1.24720E+01-8.33355E+00 5.00000E-01
 -1       308-1.50000E+01 0.00000E+00 5.00000E-01
 -1       309 1.47118E+01-2.92635E+00-5.00000E-01
 -1       310 8.33355E+00-1.24720E+01-5.00000E-01
 -1       311 8.33355E+00 1.24720E+01-5.00000E-01
 -1       312 2.92635E+00-1.47118E+01-5.00000E-01
 -1       313 2.92635E+00 1.47118E+01-5.00000E-01
 -1       314 0.00000E+00-1.50000E+01-5.00000E-01
 -1       315 0.00000E+00 1.50000E+01-5.00000E-01
 -1       316-2.92635E+00 1.47118E+01-5.00000E-01
 -1       317-1.06066E+01 1.06066E+01-5.00000E-01
 -1       318-8.33355E+00 1.24720E+01-5.00000E-01
 -1       319-1.24720E+01-8.33355E+00-5.00000E-01
 -1       320-1.24720E+01 8.33355E+00-5.00000E-01
 -1       321-1.38582E+01 5.74025E+00-5.00000E-01
 -1       322-1.38582E+01-5.74025E+00-5.00000E-01
 -1       323-1.47118E+01-2.92635E+00-5.00000E-01
 -1       324-1.06066E+01-1.06066E+01-5.00000E-01
 -1       325 1.38582E+01 5.74025E+00-5.00000E-01
 -1       326 1.38582E+01 5.74025E+00 5.00000E-01
 -1       327 5.74025E+00 1.38582E+01-5.00000E-01
 -1       328-5.06195E+00-1.58259E+00 5.00000E-01
 -1       329-2.38798E+00-4.74999E-01 5.00000E-01
 -1       330-5.28227E+00-4.74999E-01 5.00000E-01
 -1       331-7.87852E+00-2.23512E+00 5.00000E-01
 -1       332-2.02443E+00-1.35268E+00 5.00000E-01
 -1       333-4.40688E+00-3.06338E+00 5.00000E-01
 -1       334-4.51663E+00-2.89912E+00 5.00000E-01
 -1       335-1.35268E+00-2.02443E+00 5.00000E-01
 -1       336-2.89912E+00-4.51663E+00 5.00000E-01
 -1       337-3.06338E+00-4.40688E+00 5.00000E-01
 -1       338-3.55164E+00 7.33319E+00 5.00000E-01
 -1       339-3.99049E+00 7.15142E+00 5.00000E-01
 -1       340-1.35268E+00 2.02443E+00 5.00000E-01
 -1       341-3.39925E+00 4.07100E+00 5.00000E-01
 -1       342-1.14375E+00-5.24373E+00 5.00000E-01
 -1       343-1.58259E+00-5.06195E+00 5.00000E-01
 -1       344 1.14375E+00-5.24373E+00 5.00000E-01
 -1       345 1.58259E+00-5.06195E+00 5.00000E-01
 -1       346 4.74999E-01-2.38798E+00 5.00000E-01
 -1       347 1.35268E+00-2.02443E+00 5.00000E-01
 -1       348 3.39925E+00-4.07100E+00 5.00000E-01
 -1       349 4.51663E+00-2.89912E+00 5.00000E-01
 -1       350 4.40688E+00-3.06338E+00 5.00000E-01
 -1       351 4.68498E+00-1.00693E+01 5.00000E-01
 -1       352 5.28227E+00-4.74999E-01 5.00000E-01
 -1       353 2.38798E+00-4.74999E-01 5.00000E-01
 -1       354 5.28227E+00-9.50000E-01 5.00000E-01
 -1       355 8.13414E+00-9.50000E-01 5.00000E-01
 -1       356 5.24373E+00-1.14375E+00 5.00000E-01
 -1       357 8.13414E+00 9.50000E-01 5.00000E-01
 -1       358 8.33355E+00 1.24720E+01 5.00000E-01
 -1       359 5.74025E+00 1.38582E+01 5.00000E-01
 -1       360 5.41583E+00 6.08758E+00 5.00000E-01
 -1       361 2.23512E+00 7.87852E+00 5.00000E-01
 -1       362 0.00000E+00 1.50000E+01 5.00000E-01
 -1       363-9.50000E-01 8.13414E+00 5.00000E-01
 -1       364-3.80730E+00 1.04329E+01 5.00000E-01
 -1       365-5.74025E+00 1.38582E+01 5.00000E-01
 -1       366-7.50997E+00 8.18172E+00 5.00000E-01
 -1       367-5.41583E+00 6.08758E+00 5.00000E-01
 -1       368 1.04329E+01 3.80730E+00 5.00000E-01
 -1       369 7.50997E+00 8.18172E+00 5.00000E-01
 -1       370 8.18172E+00 7.50997E+00 5.00000E-01
 -1       371 6.42346E+00 5.07995E+00 5.00000E-01
 -1       372 7.15142E+00 3.99049E+00 5.00000E-01
 -1       373 1.50000E+01 0.00000E+00 5.00000E-01
 -1       374 1.47118E+01 2.92635E+00 5.00000E-01
 -1       375 1.10957E+01 4.74999E-01 5.00000E-01
 -1       376 1.10957E+01-4.74999E-01 5.00000E-01
 -1       377 1.06066E+01 1.06066E+01 5.00000E-01
 -1       378 8.13414E+00 4.74999E-01 5.00000E-01
 -1       379 1.47118E+01-2.92635E+00 5.00000E-01
 -1       380 8.13414E+00-4.74999E-01 5.00000E-01
 -1       381 7.69674E+00-2.67396E+00 5.00000E-01
 -1       382 1.24720E+01-8.33355E+00 5.00000E-01
 -1       383 7.50997E+00-8.18172E+00 5.00000E-01
 -1       384 7.15142E+00-3.99049E+00 5.00000E-01
 -1       385 7.33319E+00-3.55164E+00 5.00000E-01
 -1       386 1.00693E+01-4.68498E+00 5.00000E-01
 -1       387 8.18172E+00-7.50997E+00 5.00000E-01
 -1       388 6.42346E+00-5.07995E+00 5.00000E-01
 -1       389 8.33355E+00-1.24720E+01 5.00000E-01
 -1       390 9.50000E-01-8.13414E+00 5.00000E-01
 -1       391-9.50000E-01-8.13414E+00 5.00000E-01
 -1       392 0.00000E+00-1.50000E+01 5.00000E-01
 -1       393-5.74025E+00-1.38582E+01 5.00000E-01
 -1       394-5.41583E+00-6.08758E+00 5.00000E-01
 -1       395-7.50997E+00-8.18172E+00 5.00000E-01
 -1       396-8.18172E+00-7.50997E+00 5.00000E-01
 -1       397-8.33355E+00-1.24720E+01 5.00000E-01
 -1       398 5.28227E+00 9.50000E-01 5.00000E-01
 -1       399 5.24373E+00 1.14375E+00 5.00000E-01
 -1       400 5.06195E+00 1.58259E+00 5.00000E-01
 -1       401 3.99049E+00 7.15142E+00 5.00000E-01
 -1       402 5.07995E+00 6.42346E+00 5.00000E-01
 -1       403 2.02443E+00 1.35268E+00 5.00000E-01
 -1       404 4.40688E+00 3.06338E+00 5.00000E-01
 -1       405 4.69840E+00 2.46028E+00 5.00000E-01
 -1       406 2.89912E+00 4.51663E+00 5.00000E-01
 -1       407 2.46028E+00 4.69840E+00 5.00000E-01
 -1       408 4.74999E-01 2.38798E+00 5.00000E-01
 -1       409 4.74999E-01 5.28227E+00 5.00000E-01
 -1       410 1.14375E+00 5.24373E+00 5.00000E-01
 -1       411 1.58259E+00 5.06195E+00 5.00000E-01
 -1       412 9.50000E-01 8.13414E+00 5.00000E-01
 -1       413 4.74999E-01 8.13414E+00 5.00000E-01
 -1       414-4.74999E-01 5.28227E+00 5.00000E-01
 -1       415-9.50000E-01 5.28227E+00 5.00000E-01
 -1       416-1.58259E+00 5.06195E+00 5.00000E-01
 -1       417-7.15142E+00-3.99049E+00 5.00000E-01
 -1       418-1.00693E+01-4.68498E+00 5.00000E-01
 -1       419-6.08758E+00 5.41583E+00 5.00000E-01
 -1       420-8.18172E+00 7.50997E+00 5.00000E-01
 -1       421-1.06066E+01 1.06066E+01 5.00000E-01
 -1       422-4.69840E+00 2.46028E+00 5.00000E-01
 -1       423-1.04329E+01 3.80730E+00 5.00000E-01
 -1       424-8.13414E+00 9.50000E-01 5.00000E-01
 -1       425-8.13414E+00 4.74999E-01 5.00000E-01
 -1       426-7.87852E+00 2.23512E+00 5.00000E-01
 -1       427-5.06195E+00 1.58259E+00 5.00000E-01
 -1       428-8.13414E+00-4.74999E-01 5.00000E-01
 -1       429-1.10957E+01-4.74999E-01 5.00000E-01
 -1       430-1.06066E+01-1.06066E+01 5.00000E-01
 -1       431-1.47118E+01 2.92635E+00 5.00000E-01
 -1       432 2.32070E+00 4.61617E-01 5.00000E-01
 -1       433 1.31457E+00 1.96740E+00 5.00000E-01
 -1       434 4.61617E-01-2.32070E+00 5.00000E-01
 -1       435-4.61617E-01-2.32070E+00 5.00000E-01
 -1       436-4.61617E-01 2.32070E+00 5.00000E-01
 -1       437-1.31457E+00 1.96740E+00 5.00000E-01
 -1       438-1.31457E+00-1.96740E+00 5.00000E-01
 -1       439-1.96740E+00-1.31457E+00 5.00000E-01
 -1       440-1.38582E+01 5.74025E+00 5.00000E-01
 -1       441-1.47118E+01 2.92635E+00-5.00000E-01
 -1       442 1.06066E+01-1.06066E+01 5.00000E-01
 -1       443 1.06066E+01-1.06066E+01-5.00000E-01
 -1       444 1.38582E+01-5.74025E+00-5.00000E-01
 -1       445 1.38582E+01-5.74025E+00 5.00000E-01
 -1       446 1.24720E+01-8.33355E+00-5.00000E-01
 -1       447-8.33355E+00-1.24720E+01-5.00000E-01
 -1       448-1.47118E+01-2.92635E+00 5.00000E-01
 -1       449 2.32070E+00 4.61617E-01 1.37500E+00
 -1       450 2.32070E+00-4.61617E-01 1.37500E+00
 -1       451-5.83402E+00 3.44480E+00 2.25000E+00
 -1       452-6.56112E+00 1.68944E+00 2.25000E+00
 -1       453-3.44480E+00-5.83402E+00 2.25000E+00
 -1       454-3.44480E+00 5.83402E+00 2.25000E+00
 -1       455-4.07166E+00 5.41517E+00 2.25000E+00
 -1       456-5.41517E+00 4.07166E+00 2.25000E+00
 -1       457-3.83512E+00 4.74999E-01 2.25000E+00
 -1       458-3.83512E+00-4.74999E-01 2.25000E+00
 -1       459-3.36141E+00-1.90648E+00 2.25000E+00
 -1       460-3.72497E+00-1.02879E+00 2.25000E+00
 -1       461-1.68944E+00-6.56112E+00 2.25000E+00
 -1       462-3.36141E+00 1.90648E+00 2.25000E+00
 -1       463-3.72497E+00 1.02879E+00 2.25000E+00
 -1       464-1.68944E+00 6.56112E+00 2.25000E+00
 -1       465 1.68944E+00 6.56112E+00 2.25000E+00
 -1       466 4.11831E+00 8.70125E+00 2.25000E+00
 -1       467 3.24063E+00 9.06482E+00 2.25000E+00
 -1       468 1.90648E+00 3.36141E+00 2.25000E+00
 -1       469 1.02879E+00 3.72497E+00 2.25000E+00
 -1       470 3.44480E+00 5.83402E+00 2.25000E+00
 -1       471 3.04771E+00 2.37597E+00 2.25000E+00
 -1       472 2.37597E+00 3.04771E+00 2.25000E+00
 -1       473 3.72497E+00 1.02879E+00 2.25000E+00
 -1       474 3.36141E+00 1.90648E+00 2.25000E+00
 -1       475 3.83512E+00 4.74999E-01 2.25000E+00
 -1       476 3.83512E+00-4.74999E-01 2.25000E+00
 -1       477 6.70821E+00 9.50000E-01 2.25000E+00
 -1       478 6.70821E+00-9.50000E-01 2.25000E+00
 -1       479 9.61492E+00 4.74999E-01 2.25000E+00
 -1       480 9.61492E+00-4.74999E-01 2.25000E+00
 -1       481 3.44480E+00-5.83402E+00 2.25000E+00
 -1       482 7.13465E+00 6.46290E+00 2.25000E+00
 -1       483 6.46290E+00 7.13465E+00 2.25000E+00
 -1       484 9.06482E+00 3.24063E+00 2.25000E+00
 -1       485 8.70125E+00 4.11831E+00 2.25000E+00
 -1       486 6.56112E+00 1.68944E+00 2.25000E+00
 -1       487 5.83402E+00 3.44480E+00 2.25000E+00
 -1       488 5.41517E+00 4.07166E+00 2.25000E+00
 -1       489 4.07166E+00 5.41517E+00 2.25000E+00
 -1       490 4.11831E+00-8.70125E+00 2.25000E+00
 -1       491 3.24063E+00-9.06482E+00 2.25000E+00
 -1       492 1.90648E+00-3.36141E+00 2.25000E+00
 -1       493 1.02879E+00-3.72497E+00 2.25000E+00
 -1       494 4.74999E-01-3.83512E+00 2.25000E+00
 -1       495-4.74999E-01-3.83512E+00 2.25000E+00
 -1       496 4.74999E-01-9.61492E+00 2.25000E+00
 -1       497-4.74999E-01-9.61492E+00 2.25000E+00
 -1       498 3.72497E+00-1.02879E+00 2.25000E+00
 -1       499 3.36141E+00-1.90648E+00 2.25000E+00
 -1       500 6.56112E+00-1.68944E+00 2.25000E+00
 -1       501 5.83402E+00-3.44480E+00 2.25000E+00
 -1       502 9.06482E+00-3.24063E+00 2.25000E+00
 -1       503 8.70125E+00-4.11831E+00 2.25000E+00
 -1       504 3.04771E+00-2.37597E+00 2.25000E+00
 -1       505 2.37597E+00-3.04771E+00 2.25000E+00
 -1       506 5.41517E+00-4.07166E+00 2.25000E+00
 -1       507 4.07166E+00-5.41517E+00 2.25000E+00
 -1       508 7.13465E+00-6.46290E+00 2.25000E+00
 -1       509 6.46290E+00-7.13465E+00 2.25000E+00
 -1       510 1.68944E+00-6.56112E+00 2.25000E+00
 -1       511-9.50000E-01-6.70821E+00 2.25000E+00
 -1       512-1.02879E+00-3.72497E+00 2.25000E+00
 -1       513-1.90648E+00-3.36141E+00 2.25000E+00
 -1       514-3.24063E+00-9.06482E+00 2.25000E+00
 -1       515-4.11831E+00-8.70125E+00 2.25000E+00
 -1       516-9.50000E-01 6.70821E+00 2.25000E+00
 -1       517 4.74999E-01 9.61492E+00 2.25000E+00
 -1       518 4.74999E-01 3.83512E+00 2.25000E+00
 -1       519-4.74999E-01 3.83512E+00 2.25000E+00
 -1       520-4.74999E-01 9.61492E+00 2.25000E+00
 -1       521-1.02879E+00 3.72497E+00 2.25000E+00
 -1       522-1.90648E+00 3.36141E+00 2.25000E+00
 -1       523-3.24063E+00 9.06482E+00 2.25000E+00
 -1       524-4.11831E+00 8.70125E+00 2.25000E+00
 -1       525 9.50000E-01 6.70821E+00 2.25000E+00
 -1       526 9.50000E-01-6.70821E+00 2.25000E+00
 -1       527-2.37597E+00-3.04771E+00 2.25000E+00
 -1       528-3.04771E+00-2.37597E+00 2.25000E+00
 -1       529-2.37597E+00 3.04771E+00 2.25000E+00
 -1       530-3.04771E+00 2.37597E+00 2.25000E+00
 -1       531-4.07166E+00-5.41517E+00 2.25000E+00
 -1       532-5.41517E+00-4.07166E+00 2.25000E+00
 -1       533-5.83402E+00-3.44480E+00 2.25000E+00
 -1       534-6.56112E+00-1.68944E+00 2.25000E+00
 -1       535-9.61492E+00 4.74999E-01 2.25000E+00
 -1       536-9.61492E+00-4.74999E-01 2.25000E+00
 -1       537-8.70125E+00 4.11831E+00 2.25000E+00
 -1       538-9.06482E+00 3.24063E+00 2.25000E+00
 -1       539-6.46290E+00 7.13465E+00 2.25000E+00
 -1       540-7.13465E+00 6.46290E+00 2.25000E+00
 -1       541-6.70821E+00 9.50000E-01 2.25000E+00
 -1       542-6.70821E+00-9.50000E-01 2.25000E+00
 -1       543-6.46290E+00-7.13465E+00 2.25000E+00
 -1       544-7.13465E+00-6.46290E+00 2.25000E+00
 -1       545-8.70125E+00-4.11831E+00 2.25000E+00
 -1       546-9.06482E+00-3.24063E+00 2.25000E+00
 -1       547 1.10957E+01 4.74999E-01 1.37500E+00
 -1       548 1.10957E+01-4.74999E-01 1.37500E+00
 -1       549 2.38798E+00-4.74999E-01 1.37500E+00
 -1       550 3.83512E+00-4.74999E-01 5.00000E-01
 -1       551 5.28227E+00-4.74999E-01 1.37500E+00
 -1       552 8.13414E+00-4.74999E-01 1.37500E+00
 -1       553 9.61492E+00-4.74999E-01 5.00000E-01
 -1       554 9.61492E+00 4.74999E-01 5.00000E-01
 -1       555 8.13414E+00 4.74999E-01 1.37500E+00
 -1       556 5.28227E+00 4.74999E-01 1.37500E+00
 -1       557 3.83512E+00 4.74999E-01 5.00000E-01
 -1       558 2.38798E+00 4.74999E-01 1.37500E+00
 -1       559 5.28227E+00-9.50000E-01 1.37500E+00
 -1       560 5.28227E+00 9.50000E-01 1.37500E+00
 -1       561 8.13414E+00-9.50000E-01 1.37500E+00
 -1       562 8.13414E+00 9.50000E-01 1.37500E+00
 -1       563 6.70821E+00 9.50000E-01 5.00000E-01
 -1       564 6.70821E+00-9.50000E-01 5.00000E-01
 -1       565 1.96740E+00 1.31457E+00 1.37500E+00
 -1       566 1.00693E+01 4.68498E+00 1.37500E+00
 -1       567 1.04329E+01 3.80730E+00 1.37500E+00
 -1       568 3.72497E+00 1.02879E+00 5.00000E-01
 -1       569 5.06195E+00 1.58259E+00 1.37500E+00
 -1       570 7.69674E+00 2.67396E+00 1.37500E+00
 -1       571 9.06482E+00 3.24063E+00 5.00000E-01
 -1       572 8.70125E+00 4.11831E+00 5.00000E-01
 -1       573 7.33319E+00 3.55164E+00 1.37500E+00
 -1       574 4.69840E+00 2.46028E+00 1.37500E+00
 -1       575 3.36141E+00 1.90648E+00 5.00000E-01
 -1       576 2.02443E+00 1.35268E+00 1.37500E+00
 -1       577 5.24373E+00 1.14375E+00 1.37500E+00
 -1       578 4.51663E+00 2.89912E+00 1.37500E+00
 -1       579 7.87852E+00 2.23512E+00 1.37500E+00
 -1       580 7.15142E+00 3.99049E+00 1.37500E+00
 -1       581 5.83402E+00 3.44480E+00 5.00000E-01
 -1       582 6.56112E+00 1.68944E+00 5.00000E-01