    1C
    1U meshsolid_t.inp                                                  
    1UUSER                                                              
    1UDATE              11.july.2016                                    
    1UTIME              01:26:39                                        
    1UHOST                                                              
    1UPGM               CalculiX                                        
    1UVERSION           Version 2.10                             
    1UCOMPILETIME       Sa 5. Mär 12:23:33 CET 2016                    
    1UDIR                                                               
    1UDBN                                                               
    1UMAT    1PDMS                                                      
    2C                          2766                                     1
 -1         1 2.32070E+00-4.50000E-01 5.00000E-01
 -1         2 2.32070E+00-4.50000E-01 1.45000E+00
 -1         3 8.13414E+00 9.00000E-01 1.45000E+00
 -1         4 5.28227E+00 4.50000E-01 1.45000E+00
 -1         5 5.28227E+00-4.50000E-01 1.45000E+00
 -1         6 8.13414E+00 4.50000E-01 1.45000E+00
 -1         7 1.10957E+01 4.50000E-01 5.00000E-01
 -1         8 1.10957E+01-4.50000E-01 1.45000E+00
 -1         9 1.10957E+01 4.50000E-01 1.45000E+00
 -1        10 5.28227E+00 4.50000E-01 5.00000E-01
 -1        11 2.32070E+00 4.50000E-01 1.45000E+00
 -1        12 5.28227E+00-4.50000E-01 5.00000E-01
 -1        13 8.13414E+00-4.50000E-01 1.45000E+00
 -1        14 8.13414E+00-4.50000E-01 5.00000E-01
 -1        15 8.13414E+00 9.00000E-01 5.00000E-01
 -1        16 5.28227E+00-9.00000E-01 1.45000E+00
 -1        17 8.13414E+00-9.00000E-01 1.45000E+00
 -1        18 5.28227E+00 9.00000E-01 1.45000E+00
 -1        19 7.68717E+00 2.69706E+00 1.45000E+00
 -1        20 1.00789E+01 4.66189E+00 1.45000E+00
 -1        21 7.34276E+00 3.52855E+00 1.45000E+00
 -1        22 5.22459E+00 1.18994E+00 1.45000E+00
 -1        23 7.17055E+00 3.94429E+00 1.45000E+00
 -1        24 1.00789E+01 4.66189E+00 5.00000E-01
 -1        25 1.04233E+01 3.83040E+00 1.45000E+00
 -1        26 4.70797E+00 2.43718E+00 1.45000E+00
 -1        27 1.97184E+00 1.30384E+00 1.45000E+00
 -1        28 2.31626E+00 4.72349E-01 1.45000E+00
 -1        29 5.05239E+00 1.60569E+00 1.45000E+00
 -1        30 5.05239E+00 1.60569E+00 5.00000E-01
 -1        31 5.22459E+00 1.18994E+00 5.00000E-01
 -1        32 4.53576E+00 2.85293E+00 1.45000E+00
 -1        33 4.70797E+00 2.43718E+00 5.00000E-01
 -1        34 7.85938E+00 2.28131E+00 1.45000E+00
 -1        35 7.68717E+00 2.69706E+00 5.00000E-01
 -1        36 7.85938E+00 2.28131E+00 5.00000E-01
 -1        37 7.17055E+00 3.94429E+00 5.00000E-01
 -1        38 7.34276E+00 3.52855E+00 5.00000E-01
 -1        39 4.53576E+00 2.85293E+00 5.00000E-01
 -1        40 1.32279E+00 1.95918E+00 1.45000E+00
 -1        41 1.95918E+00 1.32279E+00 5.00000E-01
 -1        42 5.43351E+00 6.06990E+00 1.45000E+00
 -1        43 4.05332E+00 3.41693E+00 1.45000E+00
 -1        44 7.52765E+00 8.16405E+00 5.00000E-01
 -1        45 7.52765E+00 8.16405E+00 1.45000E+00
 -1        46 5.43351E+00 6.06990E+00 5.00000E-01
 -1        47 1.95918E+00 1.32279E+00 1.45000E+00
 -1        48 8.16405E+00 7.52765E+00 1.45000E+00
 -1        49 6.06990E+00 5.43351E+00 1.45000E+00
 -1        50 4.37152E+00 3.09873E+00 1.45000E+00
 -1        51 3.09873E+00 4.37152E+00 1.45000E+00
 -1        52 3.41693E+00 4.05332E+00 1.45000E+00
 -1        53 6.38810E+00 5.11531E+00 5.00000E-01
 -1        54 6.38810E+00 5.11531E+00 1.45000E+00
 -1        55 5.11531E+00 6.38810E+00 1.45000E+00
 -1        56 4.37152E+00 3.09873E+00 5.00000E-01
 -1        57 4.72349E-01 2.31626E+00 5.00000E-01
 -1        58 2.28131E+00 7.85938E+00 1.45000E+00
 -1        59 3.52855E+00 7.34276E+00 1.45000E+00
 -1        60 2.85293E+00 4.53576E+00 1.45000E+00
 -1        61 2.69706E+00 7.68717E+00 1.45000E+00
 -1        62 2.43718E+00 4.70797E+00 1.45000E+00
 -1        63 1.30384E+00 1.97184E+00 1.45000E+00
 -1        64 4.72349E-01 2.31626E+00 1.45000E+00
 -1        65 3.83040E+00 1.04233E+01 1.45000E+00
 -1        66 4.66189E+00 1.00789E+01 1.45000E+00
 -1        67 2.69706E+00 7.68717E+00 5.00000E-01
 -1        68 3.83040E+00 1.04233E+01 5.00000E-01
 -1        69 1.60569E+00 5.05239E+00 1.45000E+00
 -1        70 1.30384E+00 1.97184E+00 5.00000E-01
 -1        71 3.52855E+00 7.34276E+00 5.00000E-01
 -1        72 2.43718E+00 4.70797E+00 5.00000E-01
 -1        73 1.18994E+00 5.22459E+00 5.00000E-01
 -1        74 1.18994E+00 5.22459E+00 1.45000E+00
 -1        75 3.94429E+00 7.17055E+00 5.00000E-01
 -1        76 3.94429E+00 7.17055E+00 1.45000E+00
 -1        77 4.50000E-01 1.10957E+01 1.45000E+00
 -1        78-4.50000E-01 8.13414E+00 1.45000E+00
 -1        79 4.50000E-01 5.28227E+00 1.45000E+00
 -1        80-4.50000E-01 1.10957E+01 1.45000E+00
 -1        81-4.50000E-01 1.10957E+01 5.00000E-01
 -1        82-4.50000E-01 2.32070E+00 5.00000E-01
 -1        83-4.50000E-01 5.28227E+00 5.00000E-01
 -1        84-4.50000E-01 2.32070E+00 1.45000E+00
 -1        85 4.50000E-01 2.32070E+00 1.45000E+00
 -1        86 4.50000E-01 8.13414E+00 1.45000E+00
 -1        87 9.00000E-01 5.28227E+00 5.00000E-01
 -1        88-9.00000E-01 5.28227E+00 5.00000E-01
 -1        89-9.00000E-01 5.28227E+00 1.45000E+00
 -1        90-4.50000E-01 5.28227E+00 1.45000E+00
 -1        91 9.00000E-01 8.13414E+00 5.00000E-01
 -1        92-4.50000E-01 8.13414E+00 5.00000E-01
 -1        93 9.00000E-01 5.28227E+00 1.45000E+00
 -1        94 9.00000E-01 8.13414E+00 1.45000E+00
 -1        95-9.00000E-01 8.13414E+00 5.00000E-01
 -1        96-9.00000E-01 8.13414E+00 1.45000E+00
 -1        97-1.30384E+00 1.97184E+00 1.45000E+00
 -1        98-1.60569E+00 5.05239E+00 1.45000E+00
 -1        99-2.28131E+00 7.85938E+00 1.45000E+00
 -1       100-2.43718E+00 4.70797E+00 1.45000E+00
 -1       101-2.69706E+00 7.68717E+00 1.45000E+00
 -1       102-2.85293E+00 4.53576E+00 1.45000E+00
 -1       103-3.52855E+00 7.34276E+00 1.45000E+00
 -1       104-3.83040E+00 1.04233E+01 1.45000E+00
 -1       105-3.94429E+00 7.17055E+00 1.45000E+00
 -1       106-4.66189E+00 1.00789E+01 1.45000E+00
 -1       107-1.30384E+00 1.97184E+00 5.00000E-01
 -1       108-4.72349E-01 2.31626E+00 1.45000E+00
 -1       109-1.18994E+00 5.22459E+00 1.45000E+00
 -1       110-2.85293E+00 4.53576E+00 5.00000E-01
 -1       111-1.95918E+00 1.32279E+00 1.45000E+00
 -1       112-1.95918E+00 1.32279E+00 5.00000E-01
 -1       113-3.41693E+00 4.05332E+00 1.45000E+00
 -1       114-4.37152E+00 3.09873E+00 1.45000E+00
 -1       115-1.32279E+00 1.95918E+00 1.45000E+00
 -1       116-7.52765E+00 8.16405E+00 1.45000E+00
 -1       117-6.06990E+00 5.43351E+00 5.00000E-01
 -1       118-8.16405E+00 7.52765E+00 1.45000E+00
 -1       119-4.37152E+00 3.09873E+00 5.00000E-01
 -1       120-4.05332E+00 3.41693E+00 1.45000E+00
 -1       121-4.05332E+00 3.41693E+00 5.00000E-01
 -1       122-5.43351E+00 6.06990E+00 5.00000E-01
 -1       123-5.11531E+00 6.38810E+00 1.45000E+00
 -1       124-5.11531E+00 6.38810E+00 5.00000E-01
 -1       125-5.43351E+00 6.06990E+00 1.45000E+00
 -1       126-6.06990E+00 5.43351E+00 1.45000E+00
 -1       127-3.09873E+00 4.37152E+00 1.45000E+00
 -1       128-3.09873E+00 4.37152E+00 5.00000E-01
 -1       129-6.38810E+00 5.11531E+00 5.00000E-01
 -1       130-6.38810E+00 5.11531E+00 1.45000E+00
 -1       131-1.97184E+00 1.30384E+00 1.45000E+00
 -1       132-2.31626E+00 4.72349E-01 1.45000E+00
 -1       133-1.04233E+01 3.83040E+00 1.45000E+00
 -1       134-4.53576E+00 2.85293E+00 1.45000E+00
 -1       135-4.70797E+00 2.43718E+00 1.45000E+00
 -1       136-7.34276E+00 3.52855E+00 1.45000E+00
 -1       137-1.00789E+01 4.66189E+00 5.00000E-01
 -1       138-1.00789E+01 4.66189E+00 1.45000E+00
 -1       139-4.70797E+00 2.43718E+00 5.00000E-01
 -1       140-5.05239E+00 1.60569E+00 1.45000E+00
 -1       141-5.22459E+00 1.18994E+00 1.45000E+00
 -1       142-5.22459E+00 1.18994E+00 5.00000E-01
 -1       143-7.68717E+00 2.69706E+00 5.00000E-01
 -1       144-7.68717E+00 2.69706E+00 1.45000E+00
 -1       145-7.85938E+00 2.28131E+00 1.45000E+00
 -1       146-7.17055E+00 3.94429E+00 1.45000E+00
 -1       147-8.13414E+00 4.50000E-01 1.45000E+00
 -1       148-5.28227E+00 4.50000E-01 1.45000E+00
 -1       149-5.28227E+00-4.50000E-01 1.45000E+00
 -1       150-5.28227E+00 9.00000E-01 1.45000E+00
 -1       151-8.13414E+00-4.50000E-01 1.45000E+00
 -1       152-5.28227E+00-9.00000E-01 1.45000E+00
 -1       153-2.32070E+00 4.50000E-01 1.45000E+00
 -1       154-1.10957E+01 4.50000E-01 1.45000E+00
 -1       155-1.10957E+01-4.50000E-01 1.45000E+00
 -1       156-2.32070E+00-4.50000E-01 1.45000E+00
 -1       157-5.28227E+00 4.50000E-01 5.00000E-01
 -1       158-5.28227E+00-4.50000E-01 5.00000E-01
 -1       159-8.13414E+00 4.50000E-01 5.00000E-01
 -1       160-8.13414E+00 9.00000E-01 1.45000E+00
 -1       161-8.13414E+00-9.00000E-01 1.45000E+00
 -1       162-5.28227E+00-9.00000E-01 5.00000E-01
 -1       163-1.97184E+00-1.30384E+00 1.45000E+00
 -1       164-2.31626E+00-4.72349E-01 1.45000E+00
 -1       165-4.70797E+00-2.43718E+00 1.45000E+00
 -1       166-7.17055E+00-3.94429E+00 1.45000E+00
 -1       167-7.34276E+00-3.52855E+00 1.45000E+00
 -1       168-7.68717E+00-2.69706E+00 1.45000E+00
 -1       169-7.85938E+00-2.28131E+00 1.45000E+00
 -1       170-1.04233E+01-3.83040E+00 1.45000E+00
 -1       171-1.00789E+01-4.66189E+00 1.45000E+00
 -1       172-1.97184E+00-1.30384E+00 5.00000E-01
 -1       173-2.31626E+00-4.72349E-01 5.00000E-01
 -1       174-7.68717E+00-2.69706E+00 5.00000E-01
 -1       175-5.05239E+00-1.60569E+00 1.45000E+00
 -1       176-5.22459E+00-1.18994E+00 1.45000E+00
 -1       177-4.70797E+00-2.43718E+00 5.00000E-01
 -1       178-4.53576E+00-2.85293E+00 5.00000E-01
 -1       179-4.53576E+00-2.85293E+00 1.45000E+00
 -1       180-1.32279E+00-1.95918E+00 1.45000E+00
 -1       181-4.05332E+00-3.41693E+00 1.45000E+00
 -1       182-4.37152E+00-3.09873E+00 1.45000E+00
 -1       183-3.09873E+00-4.37152E+00 1.45000E+00
 -1       184-6.06990E+00-5.43351E+00 1.45000E+00
 -1       185-6.38810E+00-5.11531E+00 1.45000E+00
 -1       186-5.43351E+00-6.06990E+00 1.45000E+00
 -1       187-7.52765E+00-8.16405E+00 5.00000E-01
 -1       188-7.52765E+00-8.16405E+00 1.45000E+00
 -1       189-5.43351E+00-6.06990E+00 5.00000E-01
 -1       190-3.41693E+00-4.05332E+00 1.45000E+00
 -1       191-1.95918E+00-1.32279E+00 1.45000E+00
 -1       192-8.16405E+00-7.52765E+00 5.00000E-01
 -1       193-8.16405E+00-7.52765E+00 1.45000E+00
 -1       194-4.05332E+00-3.41693E+00 5.00000E-01
 -1       195-3.09873E+00-4.37152E+00 5.00000E-01
 -1       196-6.38810E+00-5.11531E+00 5.00000E-01
 -1       197-5.11531E+00-6.38810E+00 1.45000E+00
 -1       198-1.30384E+00-1.97184E+00 5.00000E-01
 -1       199-2.85293E+00-4.53576E+00 1.45000E+00
 -1       200-4.72349E-01-2.31626E+00 1.45000E+00
 -1       201-2.43718E+00-4.70797E+00 1.45000E+00
 -1       202-2.69706E+00-7.68717E+00 1.45000E+00
 -1       203-1.60569E+00-5.05239E+00 1.45000E+00
 -1       204-3.52855E+00-7.34276E+00 1.45000E+00
 -1       205-3.83040E+00-1.04233E+01 1.45000E+00
 -1       206-1.18994E+00-5.22459E+00 1.45000E+00
 -1       207-4.72349E-01-2.31626E+00 5.00000E-01
 -1       208-1.60569E+00-5.05239E+00 5.00000E-01
 -1       209-1.30384E+00-1.97184E+00 1.45000E+00
 -1       210-4.66189E+00-1.00789E+01 1.45000E+00
 -1       211-1.18994E+00-5.22459E+00 5.00000E-01
 -1       212-2.28131E+00-7.85938E+00 1.45000E+00
 -1       213-2.69706E+00-7.68717E+00 5.00000E-01
 -1       214-3.94429E+00-7.17055E+00 5.00000E-01
 -1       215-2.85293E+00-4.53576E+00 5.00000E-01
 -1       216-3.94429E+00-7.17055E+00 1.45000E+00
 -1       217-4.50000E-01-2.32070E+00 1.45000E+00
 -1       218-4.50000E-01-2.32070E+00 5.00000E-01
 -1       219-4.50000E-01-5.28227E+00 1.45000E+00
 -1       220 4.50000E-01-2.32070E+00 1.45000E+00
 -1       221 4.50000E-01-8.13414E+00 1.45000E+00
 -1       222 4.50000E-01-1.10957E+01 1.45000E+00
 -1       223-4.50000E-01-1.10957E+01 1.45000E+00
 -1       224 4.50000E-01-5.28227E+00 1.45000E+00
 -1       225 4.50000E-01-5.28227E+00 5.00000E-01
 -1       226-4.50000E-01-5.28227E+00 5.00000E-01
 -1       227-9.00000E-01-5.28227E+00 1.45000E+00
 -1       228 9.00000E-01-5.28227E+00 5.00000E-01
 -1       229-4.50000E-01-8.13414E+00 1.45000E+00
 -1       230 4.50000E-01-8.13414E+00 5.00000E-01
 -1       231-9.00000E-01-8.13414E+00 1.45000E+00
 -1       232 9.00000E-01-8.13414E+00 1.45000E+00
 -1       233 9.00000E-01-5.28227E+00 1.45000E+00
 -1       234 4.72349E-01-2.31626E+00 5.00000E-01
 -1       235 4.66189E+00-1.00789E+01 1.45000E+00
 -1       236 2.69706E+00-7.68717E+00 1.45000E+00
 -1       237 1.30384E+00-1.97184E+00 1.45000E+00
 -1       238 2.28131E+00-7.85938E+00 1.45000E+00
 -1       239 3.52855E+00-7.34276E+00 1.45000E+00
 -1       240 3.52855E+00-7.34276E+00 5.00000E-01
 -1       241 2.43718E+00-4.70797E+00 1.45000E+00
 -1       242 4.72349E-01-2.31626E+00 1.45000E+00
 -1       243 3.83040E+00-1.04233E+01 5.00000E-01
 -1       244 3.83040E+00-1.04233E+01 1.45000E+00
 -1       245 1.60569E+00-5.05239E+00 5.00000E-01
 -1       246 1.18994E+00-5.22459E+00 1.45000E+00
 -1       247 1.60569E+00-5.05239E+00 1.45000E+00
 -1       248 2.43718E+00-4.70797E+00 5.00000E-01
 -1       249 2.28131E+00-7.85938E+00 5.00000E-01
 -1       250 1.18994E+00-5.22459E+00 5.00000E-01
 -1       251 3.94429E+00-7.17055E+00 1.45000E+00
 -1       252 2.85293E+00-4.53576E+00 1.45000E+00
 -1       253 1.95918E+00-1.32279E+00 1.45000E+00
 -1       254 1.32279E+00-1.95918E+00 1.45000E+00
 -1       255 4.05332E+00-3.41693E+00 1.45000E+00
 -1       256 5.43351E+00-6.06990E+00 1.45000E+00
 -1       257 5.11531E+00-6.38810E+00 1.45000E+00
 -1       258 6.06990E+00-5.43351E+00 1.45000E+00
 -1       259 7.52765E+00-8.16405E+00 1.45000E+00
 -1       260 8.16405E+00-7.52765E+00 1.45000E+00
 -1       261 4.05332E+00-3.41693E+00 5.00000E-01
 -1       262 3.41693E+00-4.05332E+00 1.45000E+00
 -1       263 3.41693E+00-4.05332E+00 5.00000E-01
 -1       264 7.52765E+00-8.16405E+00 5.00000E-01
 -1       265 3.09873E+00-4.37152E+00 5.00000E-01
 -1       266 3.09873E+00-4.37152E+00 1.45000E+00
 -1       267 4.37152E+00-3.09873E+00 1.45000E+00
 -1       268 5.43351E+00-6.06990E+00 5.00000E-01
 -1       269 6.38810E+00-5.11531E+00 1.45000E+00
 -1       270 4.37152E+00-3.09873E+00 5.00000E-01
 -1       271 2.31626E+00-4.72349E-01 1.45000E+00
 -1       272 5.05239E+00-1.60569E+00 1.45000E+00
 -1       273 4.70797E+00-2.43718E+00 1.45000E+00
 -1       274 4.53576E+00-2.85293E+00 1.45000E+00
 -1       275 1.04233E+01-3.83040E+00 1.45000E+00
 -1       276 7.34276E+00-3.52855E+00 1.45000E+00
 -1       277 1.00789E+01-4.66189E+00 1.45000E+00
 -1       278 7.68717E+00-2.69706E+00 1.45000E+00
 -1       279 1.97184E+00-1.30384E+00 1.45000E+00
 -1       280 5.05239E+00-1.60569E+00 5.00000E-01
 -1       281 7.34276E+00-3.52855E+00 5.00000E-01
 -1       282 7.85938E+00-2.28131E+00 1.45000E+00
 -1       283 7.17055E+00-3.94429E+00 1.45000E+00
 -1       284 7.85938E+00-2.28131E+00 5.00000E-01
 -1       285 5.22459E+00-1.18994E+00 1.45000E+00
 -1       286 1.47118E+01-2.92635E+00 5.00000E-01
 -1       287-5.74025E+00-1.38582E+01-5.00000E-01
 -1       288 1.06066E+01 1.06066E+01-5.00000E-01
 -1       289 1.24720E+01 8.33355E+00-5.00000E-01
 -1       290-2.92635E+00 1.47118E+01-5.00000E-01
 -1       291-1.24720E+01 8.33355E+00 5.00000E-01
 -1       292-1.38582E+01 5.74025E+00-5.00000E-01
 -1       293 1.38582E+01 5.74025E+00-5.00000E-01
 -1       294 1.47118E+01 2.92635E+00-5.00000E-01
 -1       295 2.92635E+00 1.47118E+01-5.00000E-01
 -1       296-1.47118E+01 2.92635E+00 5.00000E-01
 -1       297-1.50000E+01 0.00000E+00-5.00000E-01
 -1       298-1.24720E+01 8.33355E+00-5.00000E-01
 -1       299 0.00000E+00 1.50000E+01-5.00000E-01
 -1       300 1.50000E+01 0.00000E+00-5.00000E-01
 -1       301 0.00000E+00-1.50000E+01-5.00000E-01
 -1       302 2.92635E+00-1.47118E+01 5.00000E-01
 -1       303 1.47118E+01-2.92635E+00-5.00000E-01
 -1       304 2.92635E+00-1.47118E+01-5.00000E-01
 -1       305 5.74025E+00-1.38582E+01 5.00000E-01
 -1       306 8.33355E+00-1.24720E+01 5.00000E-01
 -1       307 8.33355E+00-1.24720E+01-5.00000E-01
 -1       308-2.92635E+00-1.47118E+01-5.00000E-01
 -1       309 0.00000E+00-1.50000E+01 5.00000E-01
 -1       310-1.06066E+01-1.06066E+01-5.00000E-01
 -1       311-8.33355E+00-1.24720E+01 5.00000E-01
 -1       312-1.24720E+01-8.33355E+00-5.00000E-01
 -1       313 1.06066E+01-1.06066E+01-5.00000E-01
 -1       314 5.74025E+00-1.38582E+01-5.00000E-01
 -1       315 8.33355E+00 1.24720E+01-5.00000E-01
 -1       316 5.74025E+00 1.38582E+01-5.00000E-01
 -1       317-5.74025E+00 1.38582E+01-5.00000E-01
 -1       318-8.33355E+00 1.24720E+01-5.00000E-01
 -1       319-1.06066E+01 1.06066E+01-5.00000E-01
 -1       320-1.47118E+01 2.92635E+00-5.00000E-01
 -1       321-1.10957E+01 4.50000E-01 5.00000E-01
 -1       322-1.04233E+01 3.83040E+00 5.00000E-01
 -1       323-8.13414E+00-9.00000E-01 5.00000E-01
 -1       324-8.13414E+00-4.50000E-01 5.00000E-01
 -1       325-1.10957E+01-4.50000E-01 5.00000E-01
 -1       326-1.24720E+01-8.33355E+00 5.00000E-01
 -1       327-1.38582E+01-5.74025E+00 5.00000E-01
 -1       328-1.50000E+01 0.00000E+00 5.00000E-01
 -1       329-7.17055E+00 3.94429E+00 5.00000E-01
 -1       330-7.34276E+00 3.52855E+00 5.00000E-01
 -1       331-1.06066E+01 1.06066E+01 5.00000E-01
 -1       332-8.16405E+00 7.52765E+00 5.00000E-01
 -1       333-7.85938E+00 2.28131E+00 5.00000E-01
 -1       334-5.28227E+00 9.00000E-01 5.00000E-01
 -1       335-8.13414E+00 9.00000E-01 5.00000E-01
 -1       336-6.06990E+00-5.43351E+00 5.00000E-01
 -1       337-7.34276E+00-3.52855E+00 5.00000E-01
 -1       338-1.06066E+01-1.06066E+01 5.00000E-01
 -1       339-1.00789E+01-4.66189E+00 5.00000E-01
 -1       340-1.04233E+01-3.83040E+00 5.00000E-01
 -1       341-4.53576E+00 2.85293E+00 5.00000E-01
 -1       342-3.52855E+00-7.34276E+00 5.00000E-01
 -1       343-4.66189E+00-1.00789E+01 5.00000E-01
 -1       344-4.37152E+00-3.09873E+00 5.00000E-01
 -1       345-7.17055E+00-3.94429E+00 5.00000E-01
 -1       346-3.52855E+00 7.34276E+00 5.00000E-01
 -1       347-4.66189E+00 1.00789E+01 5.00000E-01
 -1       348-3.94429E+00 7.17055E+00 5.00000E-01
 -1       349-2.31626E+00 4.72349E-01 5.00000E-01
 -1       350-5.05239E+00 1.60569E+00 5.00000E-01
 -1       351-2.32070E+00 4.50000E-01 5.00000E-01
 -1       352-1.95918E+00-1.32279E+00 5.00000E-01
 -1       353-1.97184E+00 1.30384E+00 5.00000E-01
 -1       354-2.43718E+00 4.70797E+00 5.00000E-01
 -1       355-1.32279E+00 1.95918E+00 5.00000E-01
 -1       356-3.41693E+00 4.05332E+00 5.00000E-01
 -1       357-9.00000E-01-5.28227E+00 5.00000E-01
 -1       358-1.32279E+00-1.95918E+00 5.00000E-01
 -1       359-2.43718E+00-4.70797E+00 5.00000E-01
 -1       360-3.41693E+00-4.05332E+00 5.00000E-01
 -1       361-2.32070E+00-4.50000E-01 5.00000E-01
 -1       362-5.05239E+00-1.60569E+00 5.00000E-01
 -1       363-7.85938E+00-2.28131E+00 5.00000E-01
 -1       364-5.22459E+00-1.18994E+00 5.00000E-01
 -1       365-5.11531E+00-6.38810E+00 5.00000E-01
 -1       366-4.50000E-01-8.13414E+00 5.00000E-01
 -1       367-1.18994E+00 5.22459E+00 5.00000E-01
 -1       368-4.72349E-01 2.31626E+00 5.00000E-01
 -1       369-1.60569E+00 5.05239E+00 5.00000E-01
 -1       370 4.50000E-01 8.13414E+00 5.00000E-01
 -1       371 4.50000E-01-2.32070E+00 5.00000E-01
 -1       372 4.50000E-01 2.32070E+00 5.00000E-01
 -1       373 1.60569E+00 5.05239E+00 5.00000E-01
 -1       374 4.50000E-01 5.28227E+00 5.00000E-01
 -1       375 1.97184E+00-1.30384E+00 5.00000E-01
 -1       376 4.53576E+00-2.85293E+00 5.00000E-01
 -1       377 4.70797E+00-2.43718E+00 5.00000E-01
 -1       378 1.95918E+00-1.32279E+00 5.00000E-01
 -1       379 1.32279E+00-1.95918E+00 5.00000E-01
 -1       380 3.94429E+00-7.17055E+00 5.00000E-01
 -1       381 3.09873E+00 4.37152E+00 5.00000E-01
 -1       382 3.41693E+00 4.05332E+00 5.00000E-01
 -1       383 1.32279E+00 1.95918E+00 5.00000E-01
 -1       384 2.85293E+00 4.53576E+00 5.00000E-01
 -1       385 4.66189E+00-1.00789E+01 5.00000E-01
 -1       386 5.11531E+00-6.38810E+00 5.00000E-01
 -1       387 5.22459E+00-1.18994E+00 5.00000E-01
 -1       388 2.31626E+00-4.72349E-01 5.00000E-01
 -1       389 1.97184E+00 1.30384E+00 5.00000E-01
 -1       390 2.31626E+00 4.72349E-01 5.00000E-01
 -1       391 6.38810E+00-5.11531E+00 5.00000E-01
 -1       392 5.28227E+00-9.00000E-01 5.00000E-01
 -1       393 1.06066E+01 1.06066E+01 5.00000E-01
 -1       394 8.16405E+00 7.52765E+00 5.00000E-01
 -1       395 4.66189E+00 1.00789E+01 5.00000E-01
 -1       396 8.33355E+00 1.24720E+01 5.00000E-01
 -1       397 5.74025E+00 1.38582E+01 5.00000E-01
 -1       398 5.11531E+00 6.38810E+00 5.00000E-01
 -1       399 2.28131E+00 7.85938E+00 5.00000E-01
 -1       400 2.92635E+00 1.47118E+01 5.00000E-01
 -1       401 0.00000E+00 1.50000E+01 5.00000E-01
 -1       402 4.50000E-01 1.10957E+01 5.00000E-01
 -1       403-2.92635E+00 1.47118E+01 5.00000E-01
 -1       404-3.83040E+00 1.04233E+01 5.00000E-01
 -1       405-2.28131E+00 7.85938E+00 5.00000E-01
 -1       406-2.69706E+00 7.68717E+00 5.00000E-01
 -1       407-5.74025E+00 1.38582E+01 5.00000E-01
 -1       408-8.33355E+00 1.24720E+01 5.00000E-01
 -1       409-7.52765E+00 8.16405E+00 5.00000E-01
 -1       410 1.24720E+01 8.33355E+00 5.00000E-01
 -1       411 6.06990E+00 5.43351E+00 5.00000E-01
 -1       412 1.47118E+01 2.92635E+00 5.00000E-01
 -1       413 1.38582E+01 5.74025E+00 5.00000E-01
 -1       414 1.50000E+01 0.00000E+00 5.00000E-01
 -1       415 1.10957E+01-4.50000E-01 5.00000E-01
 -1       416 1.04233E+01 3.83040E+00 5.00000E-01
 -1       417 8.13414E+00 4.50000E-01 5.00000E-01
 -1       418 1.38582E+01-5.74025E+00 5.00000E-01
 -1       419 8.13414E+00-9.00000E-01 5.00000E-01
 -1       420 1.04233E+01-3.83040E+00 5.00000E-01
 -1       421 7.68717E+00-2.69706E+00 5.00000E-01
 -1       422 1.24720E+01-8.33355E+00 5.00000E-01
 -1       423 7.17055E+00-3.94429E+00 5.00000E-01
 -1       424 1.00789E+01-4.66189E+00 5.00000E-01
 -1       425 8.16405E+00-7.52765E+00 5.00000E-01
 -1       426 6.06990E+00-5.43351E+00 5.00000E-01
 -1       427 2.69706E+00-7.68717E+00 5.00000E-01
 -1       428 4.50000E-01-1.10957E+01 5.00000E-01
 -1       429 9.00000E-01-8.13414E+00 5.00000E-01
 -1       430-9.00000E-01-8.13414E+00 5.00000E-01
 -1       431-2.28131E+00-7.85938E+00 5.00000E-01
 -1       432-2.92635E+00-1.47118E+01 5.00000E-01
 -1       433-4.50000E-01-1.10957E+01 5.00000E-01
 -1       434-3.83040E+00-1.04233E+01 5.00000E-01
 -1       435-5.74025E+00-1.38582E+01 5.00000E-01
 -1       436 5.28227E+00 9.00000E-01 5.00000E-01
 -1       437 2.32070E+00 4.50000E-01 5.00000E-01
 -1       438 4.05332E+00 3.41693E+00 5.00000E-01
 -1       439 2.85293E+00-4.53576E+00 5.00000E-01
 -1       440 1.30384E+00-1.97184E+00 5.00000E-01
 -1       441-1.38582E+01 5.74025E+00 5.00000E-01
 -1       442 1.06066E+01-1.06066E+01 5.00000E-01
 -1       443 1.38582E+01-5.74025E+00-5.00000E-01
 -1       444 1.24720E+01-8.33355E+00-5.00000E-01
 -1       445-8.33355E+00-1.24720E+01-5.00000E-01
 -1       446-1.47118E+01-2.92635E+00-5.00000E-01
 -1       447-1.47118E+01-2.92635E+00 5.00000E-01
 -1       448-1.38582E+01-5.74025E+00-5.00000E-01
 -1       449 3.80149E+00 4.50000E-01 1.45000E+00
 -1       450 3.80149E+00-4.50000E-01 1.45000E+00
 -1       451 6.70821E+00 9.00000E-01 1.45000E+00
 -1       452 6.70821E+00-9.00000E-01 1.45000E+00
 -1       453 9.61492E+00 4.50000E-01 1.45000E+00
 -1       454 9.61492E+00-4.50000E-01 1.45000E+00
 -1       455 9.61492E+00 4.50000E-01 5.00000E-01
 -1       456 3.80149E+00 4.50000E-01 5.00000E-01
 -1       457 3.80149E+00-4.50000E-01 5.00000E-01
 -1       458 9.61492E+00-4.50000E-01 5.00000E-01
 -1       459 6.70821E+00-9.00000E-01 5.00000E-01
 -1       460 6.70821E+00 9.00000E-01 5.00000E-01
 -1       461 9.05523E+00 3.26373E+00 1.45000E+00
 -1       462 8.71083E+00 4.09522E+00 1.45000E+00
 -1       463 6.54199E+00 1.73563E+00 1.45000E+00
 -1       464 5.85316E+00 3.39861E+00 1.45000E+00
 -1       465 3.68432E+00 1.03902E+00 1.45000E+00
 -1       466 3.33991E+00 1.87051E+00 1.45000E+00
 -1       467 8.71083E+00 4.09522E+00 5.00000E-01
 -1       468 3.33991E+00 1.87051E+00 5.00000E-01
 -1       469 3.68432E+00 1.03902E+00 5.00000E-01
 -1       470 9.05523E+00 3.26373E+00 5.00000E-01
 -1       471 6.54199E+00 1.73563E+00 5.00000E-01
 -1       472 5.85316E+00 3.39861E+00 5.00000E-01
 -1       473 7.11697E+00 6.48058E+00 1.45000E+00
 -1       474 6.48058E+00 7.11697E+00 1.45000E+00
 -1       475 5.37981E+00 4.10702E+00 1.45000E+00
 -1       476 4.10702E+00 5.37981E+00 1.45000E+00
 -1       477 3.00625E+00 2.36986E+00 1.45000E+00
 -1       478 2.36986E+00 3.00625E+00 1.45000E+00
 -1       479 6.48058E+00 7.11697E+00 5.00000E-01
 -1       480 2.36986E+00 3.00625E+00 5.00000E-01
 -1       481 3.00625E+00 2.36986E+00 5.00000E-01
 -1       482 7.11697E+00 6.48058E+00 5.00000E-01
 -1       483 5.37981E+00 4.10702E+00 5.00000E-01
 -1       484 4.10702E+00 5.37981E+00 5.00000E-01
 -1       485 1.73563E+00 6.54199E+00 1.45000E+00
 -1       486 4.09522E+00 8.71083E+00 1.45000E+00
 -1       487 3.26373E+00 9.05523E+00 1.45000E+00
 -1       488 1.87051E+00 3.33991E+00 1.45000E+00
 -1       489 1.03902E+00 3.68432E+00 1.45000E+00
 -1       490 3.39861E+00 5.85316E+00 1.45000E+00
 -1       491 3.26373E+00 9.05523E+00 5.00000E-01
 -1       492 1.03902E+00 3.68432E+00 5.00000E-01
 -1       493 1.87051E+00 3.33991E+00 5.00000E-01
 -1       494 4.09522E+00 8.71083E+00 5.00000E-01
 -1       495 3.39861E+00 5.85316E+00 5.00000E-01
 -1       496 1.73563E+00 6.54199E+00 5.00000E-01
 -1       497-9.00000E-01 6.70821E+00 1.45000E+00
 -1       498 4.50000E-01 9.61492E+00 1.45000E+00
 -1       499-4.50000E-01 9.61492E+00 1.45000E+00
 -1       500 4.50000E-01 3.80149E+00 1.45000E+00
 -1       501-4.50000E-01 3.80149E+00 1.45000E+00
 -1       502 9.00000E-01 6.70821E+00 1.45000E+00
 -1       503-4.50000E-01 9.61492E+00 5.00000E-01
 -1       504-4.50000E-01 3.80149E+00 5.00000E-01
 -1       505 4.50000E-01 3.80149E+00 5.00000E-01
 -1       506 4.50000E-01 9.61492E+00 5.00000E-01
 -1       507 9.00000E-01 6.70821E+00 5.00000E-01
 -1       508-9.00000E-01 6.70821E+00 5.00000E-01
 -1       509-1.73563E+00 6.54199E+00 1.45000E+00
 -1       510-1.03902E+00 3.68432E+00 1.45000E+00
 -1       511-1.87051E+00 3.33991E+00 1.45000E+00
 -1       512-3.26373E+00 9.05523E+00 1.45000E+00
 -1       513-4.09522E+00 8.71083E+00 1.45000E+00
 -1       514-3.39861E+00 5.85316E+00 1.45000E+00
 -1       515-4.09522E+00 8.71083E+00 5.00000E-01
 -1       516-1.87051E+00 3.33991E+00 5.00000E-01
 -1       517-1.03902E+00 3.68432E+00 5.00000E-01
 -1       518-3.26373E+00 9.05523E+00 5.00000E-01
 -1       519-1.73563E+00 6.54199E+00 5.00000E-01
 -1       520-3.39861E+00 5.85316E+00 5.00000E-01
 -1       521-6.48058E+00 7.11697E+00 1.45000E+00
 -1       522-7.11697E+00 6.48058E+00 1.45000E+00
 -1       523-4.10702E+00 5.37981E+00 1.45000E+00
 -1       524-5.37981E+00 4.10702E+00 1.45000E+00
 -1       525-2.36986E+00 3.00625E+00 1.45000E+00
 -1       526-3.00625E+00 2.36986E+00 1.45000E+00
 -1       527-7.11697E+00 6.48058E+00 5.00000E-01
 -1       528-3.00625E+00 2.36986E+00 5.00000E-01
 -1       529-2.36986E+00 3.00625E+00 5.00000E-01
 -1       530-6.48058E+00 7.11697E+00 5.00000E-01
 -1       531-4.10702E+00 5.37981E+00 5.00000E-01
 -1       532-5.37981E+00 4.10702E+00 5.00000E-01
 -1       533-8.71083E+00 4.09522E+00 1.45000E+00
 -1       534-9.05523E+00 3.26373E+00 1.45000E+00
 -1       535-5.85316E+00 3.39861E+00 1.45000E+00
 -1       536-6.54199E+00 1.73563E+00 1.45000E+00
 -1       537-3.33991E+00 1.87051E+00 1.45000E+00
 -1       538-3.68432E+00 1.03902E+00 1.45000E+00
 -1       539-9.05523E+00 3.26373E+00 5.00000E-01
 -1       540-3.68432E+00 1.03902E+00 5.00000E-01
 -1       541-3.33991E+00 1.87051E+00 5.00000E-01
 -1       542-8.71083E+00 4.09522E+00 5.00000E-01
 -1       543-5.85316E+00 3.39861E+00 5.00000E-01
 -1       544-6.54199E+00 1.73563E+00 5.00000E-01
 -1       545-9.61492E+00 4.50000E-01 1.45000E+00
 -1       546-9.61492E+00-4.50000E-01 1.45000E+00
 -1       547-6.70821E+00 9.00000E-01 1.45000E+00
 -1       548-6.70821E+00-9.00000E-01 1.45000E+00
 -1       549-3.80149E+00 4.50000E-01 1.45000E+00
 -1       550-3.80149E+00-4.50000E-01 1.45000E+00
 -1       551-9.61492E+00-4.50000E-01 5.00000E-01
 -1       552-3.80149E+00-4.50000E-01 5.00000E-01
 -1       553-3.80149E+00 4.50000E-01 5.00000E-01
 -1       554-9.61492E+00 4.50000E-01 5.00000E-01
 -1       555-6.70821E+00 9.00000E-01 5.00000E-01
 -1       556-6.70821E+00-9.00000E-01 5.00000E-01
 -1       557-3.33991E+00-1.87051E+00 1.45000E+00
 -1       558-3.68432E+00-1.03902E+00 1.45000E+00
 -1       559-5.85316E+00-3.39861E+00 1.45000E+00
 -1       560-6.54199E+00-1.73563E+00 1.45000E+00
 -1       561-8.71083E+00-4.09522E+00 1.45000E+00
 -1       562-9.05523E+00-3.26373E+00 1.45000E+00
 -1       563-8.71083E+00-4.09522E+00 5.00000E-01
 -1       564-3.33991E+00-1.87051E+00 5.00000E-01
 -1       565-3.68432E+00-1.03902E+00 5.00000E-01
 -1       566-9.05523E+00-3.26373E+00 5.00000E-01
 -1       567-6.54199E+00-1.73563E+00 5.00000E-01
 -1       568-5.85316E+00-3.39861E+00 5.00000E-01
 -1       569-2.36986E+00-3.00625E+00 1.45000E+00
 -1       570-3.00625E+00-2.36986E+00 1.45000E+00
 -1       571-4.10702E+00-5.37981E+00 1.45000E+00
 -1       572-5.37981E+00-4.10702E+00 1.45000E+00
 -1       573-6.48058E+00-7.11697E+00 1.45000E+00
 -1       574-7.11697E+00-6.48058E+00 1.45000E+00
 -1       575-6.48058E+00-7.11697E+00 5.00000E-01
 -1       576-2.36986E+00-3.00625E+00 5.00000E-01
 -1       577-3.00625E+00-2.36986E+00 5.00000E-01
 -1       578-7.11697E+00-6.48058E+00 5.00000E-01
 -1       579-5.37981E+00-4.10702E+00 5.00000E-01
 -1       580-4.10702E+00-5.37981E+00 5.00000E-01
 -1       581-3.39861E+00-5.85316E+00 1.45000E+00
 -1       582-1.03902E+00-3.68432E+00 1.45000E+00