
 displacements (vx,vy,vz) for set NALL and time  0.1000000E+01

         1 -3.052805E-03  2.617996E-04 -5.405169E-02
         2  6.842480E-03 -8.705600E-04 -5.510683E-02
         3  6.791702E-03 -1.078169E-03 -5.566042E-02
         4 -3.781433E-03 -4.937589E-04 -8.292185E-02
         5 -5.482416E-03 -8.646347E-04 -8.307926E-02
         6  1.445093E-03 -5.876904E-04 -7.952075E-02
         7 -4.419424E-03 -8.374519E-04 -8.361595E-02
         8 -1.343765E-02 -6.126982E-04 -5.824207E-02
         9 -5.361422E-03 -2.382645E-04 -8.266937E-02
        10 -4.049642E-03 -2.167307E-04 -5.734761E-02
        11 -1.335537E-02 -8.873453E-04 -5.894180E-02
        12 -3.228868E-03 -2.843988E-04 -8.019292E-02
        13  1.483069E-03 -8.833331E-04 -7.990012E-02
        14 -3.168126E-03  8.097652E-05 -8.051755E-02
        15  8.244750E-04 -9.016256E-04 -8.045879E-02
        16  4.542976E-04 -5.546349E-04 -7.966980E-02
        17 -2.476421E-03  7.683365E-05 -8.384244E-02
        18 -2.478511E-03 -1.979232E-04 -8.373169E-02
        19 -2.398817E-03 -8.130426E-03 -7.764588E-02
        20 -1.014812E-02 -9.494873E-03 -5.138457E-02
        21  2.820439E-03 -6.458754E-03 -7.792183E-02
        22 -2.194443E-03 -7.551298E-03 -7.388722E-02
        23 -1.323445E-03 -7.231498E-03 -7.226196E-02
        24 -3.171170E-03 -1.986591E-03 -5.055968E-02
        25 -9.649634E-03 -9.590371E-03 -5.460727E-02
        26  3.976902E-03 -5.828450E-03 -7.061042E-02
        27  8.482150E-03 -5.127500E-03 -4.821976E-02
        28  8.656457E-03 -5.206621E-03 -5.381678E-02
        29  3.806936E-03 -6.229289E-03 -7.529996E-02
        30 -2.826394E-03 -1.397193E-03 -7.587641E-02
        31 -2.671272E-03 -1.141097E-03 -7.829212E-02
        32 -2.621620E-03 -1.615259E-03 -7.116580E-02
        33  3.225329E-03 -6.089819E-03 -6.863196E-02
        34 -1.769300E-03 -1.673870E-03 -7.854147E-02
        35 -1.441900E-03 -7.740551E-03 -8.002403E-02
        36 -2.047182E-03 -2.057178E-03 -7.306398E-02
        37 -1.938637E-03 -1.839663E-03 -7.471318E-02
        38  4.474229E-03 -1.017827E-02 -5.485246E-02
        39  4.798794E-03 -1.031729E-02 -6.128286E-02
        40 -1.661128E-03 -1.198804E-02 -3.861440E-02
        41 -1.082155E-03 -1.948266E-03 -5.201826E-02
        42  1.381938E-02 -7.475024E-03 -3.381512E-02
        43  1.396544E-02 -7.507131E-03 -4.473012E-02
        44 -1.185073E-03 -1.180220E-02 -4.306537E-02
        45  9.563236E-03 -8.202595E-03 -5.999785E-02
        46  8.784771E-03 -8.482294E-03 -4.795549E-02
        47  9.308013E-03 -7.932816E-03 -5.175902E-02
        48  5.402758E-03 -9.775216E-03 -6.493344E-02
        49  5.113879E-03 -9.645483E-03 -5.175541E-02
        50 -4.122154E-04 -2.323686E-03 -5.564281E-02
        51  9.123423E-03 -8.563163E-03 -6.440160E-02
        52 -1.748639E-03 -1.765332E-03 -6.495863E-02
        53 -1.034272E-04 -2.349376E-03 -5.269985E-02
        54  2.019855E-02 -5.504244E-03 -2.858822E-02
        55  1.289733E-02 -6.808953E-03 -2.299824E-02
        56  1.288080E-02 -7.148290E-03 -3.644642E-02
        57  1.253568E-02 -7.219675E-03 -2.746053E-02
        58  1.579992E-02 -5.716703E-03 -3.599898E-02
        59  2.017645E-02 -5.587684E-03 -1.367709E-02
        60  7.329280E-03 -8.587758E-03 -2.039462E-02
        61  7.465102E-03 -8.331469E-03 -2.596679E-02
        62  7.886612E-04 -1.847634E-03 -2.045914E-02
        63  1.557895E-02 -5.755159E-03 -2.493905E-02
        64 -1.126720E-03 -9.117987E-04 -2.950194E-02
        65  1.273502E-03 -1.511274E-03 -3.672095E-02
        66 -1.206073E-04 -1.537795E-03 -4.197814E-02
        67  3.777599E-04 -1.264759E-03 -2.513582E-02
        68  1.489767E-03 -1.538448E-03 -2.790145E-02
        69  1.308843E-02 -6.813407E-03 -4.122088E-02
        70  1.559118E-02 -5.998761E-03 -4.155692E-02
        71  1.540145E-02 -6.010365E-03 -1.961874E-02
        72  1.639045E-02 -5.490143E-06  5.409405E-03
        73  1.269280E-02  4.512040E-05 -3.125874E-03
        74  1.644532E-02 -5.133431E-05 -9.871125E-03
        75  1.828882E-02 -8.517730E-05 -5.725150E-03
        76  1.271199E-02 -1.221242E-04  4.281313E-03
        77  1.818555E-03  2.142248E-04  3.912237E-03
        78 -6.417121E-04  3.235489E-04  9.441267E-03
        79  8.299921E-04  2.304974E-04  6.581790E-03
        80  2.218282E-02 -2.009786E-04  7.939963E-03
        81  2.219713E-02  4.430603E-05 -7.820520E-03
        82  1.635398E-02 -1.306750E-05 -4.734240E-03
        83  2.040273E-03  9.551491E-05 -4.687578E-03
        84  9.163135E-04  3.075513E-05 -5.764690E-03
        85  7.840591E-04 -4.498051E-04 -1.235046E-02
        86  5.685687E-04  4.812041E-04  1.302864E-02
        87  1.805234E-02  1.678823E-04  1.233992E-02
        88  1.820826E-02  6.214571E-05  6.399591E-03
        89  2.080060E-03 -1.537839E-04 -8.990609E-03
        90  1.821669E-02 -4.589480E-05 -1.169955E-02
        91  1.646566E-02  7.232620E-05  1.059212E-02
        92  2.029772E-02  5.300563E-03  2.838486E-02
        93  2.019889E-02  5.445247E-03  1.358663E-02
        94  1.545550E-02  5.776438E-03  2.551350E-02
        95  1.294364E-02  6.803335E-03  2.369955E-02
        96  1.560533E-02  5.872367E-03  3.635779E-02
        97  1.283544E-02  7.238678E-03  3.716425E-02
        98  7.521275E-03  8.514515E-03  2.683809E-02
        99  1.306866E-02  6.906709E-03  4.203427E-02
       100  7.336327E-03  8.630283E-03  2.119034E-02
       101 -1.297153E-03  1.103459E-03  2.942406E-02
       102  1.727270E-04  1.442115E-03  2.566144E-02
       103  1.253733E-02  7.263128E-03  2.819823E-02
       104  1.302737E-03  1.640678E-03  2.862238E-02
       105  1.525152E-02  6.058525E-03  2.023542E-02
       106 -8.454946E-05  1.559025E-03  3.688739E-02
       107  1.065104E-03  1.721314E-03  3.746200E-02
       108  1.273084E-03  1.564308E-03  2.455435E-02
       109  1.544428E-02  6.107480E-03  4.204436E-02
       110  5.513172E-03  1.080042E-02  6.323556E-02
       111 -2.566253E-04  1.363517E-02  4.543796E-02
       112  9.171774E-03  8.333322E-03  4.856288E-02
       113  5.378563E-03  1.040619E-02  5.620452E-02
       114  9.693674E-03  8.065882E-03  6.084265E-02
       115  6.138748E-03  1.025225E-02  6.720691E-02
       116  1.413925E-02  7.271225E-03  3.339549E-02
       117 -3.722230E-04  1.329991E-02  3.974868E-02
       118 -1.601023E-03  2.938804E-03  4.390309E-02
       119  1.431317E-02  7.222147E-03  4.422186E-02
       120  9.604907E-03  7.811444E-03  5.246824E-02
       121 -1.089504E-03  2.044818E-03  5.291910E-02
       122  9.173116E-03  8.517121E-03  6.514849E-02
       123 -1.476696E-03  1.925575E-03  6.129682E-02
       124 -2.850080E-04  2.484425E-03  5.720591E-02
       125  6.028751E-03  9.852783E-03  5.293848E-02
       126 -3.295799E-05  2.424763E-03  5.419316E-02
       127 -3.859597E-04  2.303529E-03  6.389011E-02
       128 -6.907394E-04  2.395512E-03  6.706124E-02
       129  9.317242E-03  5.363158E-03  5.348317E-02
       130 -1.015010E-02  9.316402E-03  5.463130E-02
       131 -9.567206E-03  9.403537E-03  5.776705E-02
       132 -1.882718E-03  7.491669E-03  7.637152E-02
       133  3.662658E-03  6.041143E-03  6.959719E-02
       134  4.477513E-03  5.584962E-03  7.164299E-02
       135  9.077299E-03  5.280436E-03  4.724115E-02
       136 -3.445092E-03  2.066196E-03  5.372870E-02
       137 -3.722758E-03  2.149771E-03  5.591903E-02
       138 -2.631051E-03  1.622925E-03  7.217604E-02
       139 -1.927664E-03  1.894866E-03  7.739704E-02
       140  4.178353E-03  5.975892E-03  7.618643E-02
       141 -2.788000E-03  1.344060E-03  7.680008E-02
       142 -2.168448E-03  1.490597E-03  8.296825E-02
       143 -1.962767E-03  7.986779E-03  8.016189E-02
       144 -8.445016E-04  7.110799E-03  7.473411E-02
       145 -1.959956E-03  1.993705E-03  7.553423E-02
       146 -9.995475E-04  7.588725E-03  8.255020E-02
       147  3.552572E-03  6.245659E-03  7.879800E-02
       148  7.207932E-03  2.398536E-04  5.446891E-02
       149  6.815710E-03  5.276277E-06  5.457379E-02
       150  1.888294E-03 -5.577915E-04  7.988768E-02
       151  9.775028E-04 -5.699174E-04  8.042771E-02
       152 -5.137656E-03 -1.004093E-03  8.393622E-02
       153 -5.017741E-03 -3.947293E-04  8.363660E-02
       154  1.779705E-03 -1.277981E-04  7.960119E-02
       155 -1.295684E-02 -6.443062E-04  6.066299E-02
       156 -4.536535E-03 -1.400061E-04  5.894973E-02
       157 -1.367298E-02 -2.871028E-04  6.000993E-02
       158 -2.896171E-03 -2.182447E-04  5.300347E-02
       159 -2.691416E-03  5.238529E-05  8.507212E-02
       160 -4.041206E-03 -9.697941E-04  8.458583E-02
       161 -2.680457E-03 -2.302817E-04  8.472546E-02
       162  9.986661E-04 -1.092016E-04  7.985738E-02
       163 -3.825449E-03 -3.953274E-04  8.396606E-02
       164 -3.129135E-03 -3.490982E-04  8.003390E-02
       165  9.189219E-03 -5.173874E-03  5.337144E-02
       166  8.907233E-03 -5.114563E-03  4.718404E-02
       167  3.177672E-03 -5.922965E-03  7.810621E-02
       168  4.158879E-03 -5.794277E-03  7.550723E-02
       169 -2.255136E-03 -6.823436E-03  7.547906E-02
       170 -1.075345E-03 -6.532466E-03  8.111629E-02
       171 -9.805780E-03 -8.398436E-03  5.670479E-02
       172 -1.063414E-02 -8.578544E-03  5.371064E-02
       173 -2.106296E-03 -1.614929E-03  7.637561E-02
       174 -2.412775E-03 -1.524934E-03  7.160903E-02
       175  4.033996E-03 -5.497213E-03  7.112640E-02
       176 -2.425127E-03 -9.226323E-04  4.534892E-02
       177 -2.736388E-03 -1.187303E-03  7.636448E-02
       178 -1.868265E-03 -1.405538E-03  8.006033E-02
       179 -2.328887E-03 -1.652835E-03  6.892533E-02
       180 -2.254473E-03 -7.274873E-03  7.901623E-02
       181 -2.619418E-03 -9.012984E-04  7.847192E-02
       182 -1.215481E-03 -6.450265E-03  7.399672E-02
       183  3.267983E-03 -5.763723E-03  6.925322E-02
       184  9.181850E-03 -8.533524E-03  6.469162E-02
       185  9.841792E-03 -7.900649E-03  5.181794E-02
       186  9.381655E-03 -8.254315E-03  4.792731E-02
       187  6.435013E-03 -9.654943E-03  5.235706E-02
       188  5.658398E-03 -1.061445E-02  6.265064E-02
       189  6.258086E-03 -1.003595E-02  6.656315E-02
       190  5.450506E-03 -1.026244E-02  5.562044E-02
       191 -1.173605E-03 -2.803914E-03  4.045117E-02
       192 -9.871326E-04 -1.212259E-02  4.092093E-02
       193 -1.506040E-03 -1.192410E-03  3.048457E-02
       194  1.437569E-02 -7.606439E-03  3.255391E-02
       195  1.464113E-02 -7.506762E-03  4.399301E-02
       196 -4.337731E-04 -1.203020E-02  4.568637E-02
       197 -5.240400E-04 -2.176551E-03  6.334932E-02
       198 -1.640311E-03 -2.837215E-03  4.407104E-02
       199 -1.676511E-03 -1.699417E-03  6.512598E-02
       200  9.902061E-03 -8.129066E-03  6.027673E-02
       201 -1.126279E-03 -1.940295E-03  5.233280E-02
       202 -7.848113E-04 -1.742654E-03  4.740551E-02
       203 -7.773615E-04 -2.136343E-03  6.653957E-02
       204  1.998552E-02 -5.307948E-03  1.274858E-02
       205  1.593148E-02 -5.664563E-03  2.406420E-02
       206  1.597202E-02 -5.697641E-03  3.546684E-02
       207  1.270866E-02 -7.240475E-03  2.684182E-02
       208  7.591234E-03 -8.588848E-03  1.983716E-02
       209  7.665843E-03 -8.545822E-03  2.538413E-02
       210 -7.527884E-04 -4.862218E-04  1.069966E-02
       211  2.011513E-02 -5.211024E-03  2.739649E-02
       212  1.804613E-04 -1.423699E-03  3.573735E-02
       213  7.657327E-04 -1.933188E-03  2.465154E-02
       214  1.576217E-02 -5.991697E-03  4.104045E-02
       215  5.061494E-04 -9.269884E-04  1.825700E-02
       216  1.572312E-02 -5.879570E-03  1.870827E-02
       217  3.203816E-04 -1.270419E-03  2.413991E-02
       218  1.316928E-02 -7.172917E-03  3.606390E-02
       219  1.295764E-02 -6.905528E-03  2.240425E-02
       220  1.539275E-03 -1.617024E-03  2.327803E-02
       221 -2.935451E-04 -1.628470E-03  4.170354E-02
       222  1.336013E-02 -6.870576E-03  4.089068E-02
       223  2.206348E-02 -4.817240E-05  7.211898E-03
       224  1.879103E-02 -1.061858E-04  4.879559E-03
       225  1.674184E-02  7.716577E-05  8.929890E-03
       226  2.197502E-02  1.647512E-04 -9.025823E-03
       227  1.667245E-02  1.829128E-04 -6.513517E-03
       228  1.231803E-02  2.645055E-04 -4.063494E-03
       229  1.871246E-02  5.873859E-05 -7.637395E-03
       230  1.229985E-02  5.995400E-04  2.846466E-03
       231  1.871773E-02 -6.752811E-05  1.112000E-02
       232  6.358779E-04 -3.944436E-04  1.156148E-02
       233  1.863917E-02  1.175523E-04 -1.379998E-02
       234  7.702463E-04  5.841366E-04 -1.434012E-02
       235  1.662504E-02  1.817891E-04  3.734753E-03
       236  1.676616E-02  1.479802E-04 -1.182715E-02
       237  2.041180E-02  5.040059E-03 -1.438825E-02
       238  8.284908E-03  9.053878E-03 -2.898779E-02
       239  1.315243E-02  7.310854E-03 -3.040482E-02
       240  1.606098E-02  5.458652E-03 -2.718974E-02
       241  2.043645E-02  5.035341E-03 -2.939575E-02
       242  1.341578E-02  6.912694E-03 -2.587183E-02
       243  1.357855E-02  7.323861E-03 -3.991403E-02
       244  1.367575E-03  1.636534E-03 -4.015819E-02
       245  1.622389E-02  5.586531E-03 -3.818977E-02
       246  8.244093E-04  2.006075E-03 -2.271184E-02
       247  8.005406E-03  9.379423E-03 -2.270069E-02
       248  5.286553E-04  1.376526E-03 -2.719708E-02
       249  1.583937E-02  5.746003E-03 -2.188005E-02
       250  7.711481E-04  9.942020E-04 -2.111062E-02
       251  1.604881E-02  5.853813E-03 -4.400042E-02
       252  1.650100E-04  1.528681E-03 -3.873687E-02
       253  1.740516E-03  1.416060E-03 -2.674734E-02
       254  1.381277E-02  6.931017E-03 -4.488675E-02
       255 -7.746063E-05  1.641439E-03 -4.464623E-02
       256  1.423605E-02  6.925312E-03 -4.515803E-02
       257  5.740747E-03  8.838222E-03 -6.863447E-02
       258  5.011342E-03  9.702395E-03 -6.507690E-02
       259  9.646679E-03  7.427754E-03 -6.238150E-02
       260 -1.634225E-03  1.134065E-02 -4.391274E-02
       261 -1.449724E-03  2.599134E-03 -4.672117E-02
       262 -1.292850E-03  1.145066E-02 -4.789766E-02
       263  1.410503E-02  6.915434E-03 -3.461091E-02
       264  9.479095E-03  7.257867E-03 -5.440752E-02
       265 -1.158555E-03  2.895308E-03 -4.358140E-02
       266  4.760340E-03  9.486495E-03 -5.862578E-02
       267 -1.124472E-03  2.071441E-03 -5.484235E-02
       268 -5.739635E-04  1.829701E-03 -5.020863E-02
       269 -1.762011E-03  1.817116E-03 -6.700983E-02
       270  9.104044E-03  7.879708E-03 -6.655062E-02
       271  5.290199E-03  9.054097E-03 -5.564141E-02
       272 -5.924074E-04  2.028706E-03 -6.846870E-02
       273 -4.573772E-04  2.117298E-03 -6.572317E-02
       274  9.042980E-03  7.583904E-03 -5.075414E-02
       275  8.971282E-03  4.535217E-03 -5.435695E-02
       276  8.828979E-03  4.441517E-03 -4.897906E-02
       277  3.755476E-03  5.223087E-03 -7.654231E-02
       278  3.004299E-03  5.295532E-03 -7.107889E-02
       279 -9.985879E-03  7.790560E-03 -5.654763E-02
       280 -1.072382E-02  8.030776E-03 -5.400251E-02
       281 -3.226963E-03  1.722638E-03 -5.345163E-02
       282 -3.455937E-03  1.780654E-03 -5.451340E-02
       283 -2.591921E-03  6.715146E-03 -7.929471E-02
       284 -2.602961E-03  1.146278E-03 -7.745077E-02
       285  3.896631E-03  4.803941E-03 -7.269855E-02
       286 -2.482071E-03  6.255268E-03 -7.633401E-02
       287 -1.964070E-03  1.554706E-03 -7.713781E-02
       288 -1.591556E-03  5.920505E-03 -7.507874E-02
       289 -1.575016E-03  6.311234E-03 -8.130774E-02
       290 -1.692859E-03  1.289344E-03 -8.028255E-02
       291 -2.005474E-03  1.732698E-03 -7.057940E-02
       292 -1.867597E-03  1.185834E-03 -8.177783E-02
       293  3.051949E-03  5.507329E-03 -7.893220E-02
       294  0.000000E+00  0.000000E+00  0.000000E+00
       295  0.000000E+00  0.000000E+00  0.000000E+00
       296  0.000000E+00  0.000000E+00  0.000000E+00
       297  0.000000E+00  0.000000E+00  0.000000E+00
       298  0.000000E+00  0.000000E+00  0.000000E+00
       299  0.000000E+00  0.000000E+00  0.000000E+00
       300  0.000000E+00  0.000000E+00  0.000000E+00
       301  0.000000E+00  0.000000E+00  0.000000E+00
       302  0.000000E+00  0.000000E+00  0.000000E+00
       303  0.000000E+00  0.000000E+00  0.000000E+00
       304  0.000000E+00  0.000000E+00  0.000000E+00
       305  0.000000E+00  0.000000E+00  0.000000E+00
       306  0.000000E+00  0.000000E+00  0.000000E+00
       307  0.000000E+00  0.000000E+00  0.000000E+00
       308  0.000000E+00  0.000000E+00  0.000000E+00
       309  0.000000E+00  0.000000E+00  0.000000E+00
       310  0.000000E+00  0.000000E+00  0.000000E+00
       311  0.000000E+00  0.000000E+00  0.000000E+00
       312  0.000000E+00  0.000000E+00  0.000000E+00
       313  0.000000E+00  0.000000E+00  0.000000E+00
       314  0.000000E+00  0.000000E+00  0.000000E+00
       315  0.000000E+00  0.000000E+00  0.000000E+00
       316  0.000000E+00  0.000000E+00  0.000000E+00
       317  0.000000E+00  0.000000E+00  0.000000E+00
       318  0.000000E+00  0.000000E+00  0.000000E+00
       319  0.000000E+00  0.000000E+00  0.000000E+00
       320 -1.956285E-03  1.702676E-03  8.115392E-02
       321 -2.759301E-03  1.592582E-04  8.518886E-02
       322  0.000000E+00  0.000000E+00  0.000000E+00
       323 -2.046793E-03 -1.239796E-03  8.141656E-02
       324 -2.684069E-03 -3.522334E-04  8.464568E-02
       325  0.000000E+00  0.000000E+00  0.000000E+00
       326  0.000000E+00  0.000000E+00  0.000000E+00
       327  0.000000E+00  0.000000E+00  0.000000E+00
       328 -3.736392E-03 -1.431188E-03  5.458682E-02
       329 -4.266678E-03  2.152072E-04  5.930412E-02
       330  0.000000E+00  0.000000E+00  0.000000E+00
       331  0.000000E+00  0.000000E+00  0.000000E+00
       332 -1.837615E-03 -1.714519E-03  7.474933E-02
       333 -3.381787E-03 -1.874481E-03  5.303311E-02
       334  1.274379E-03 -1.493193E-03  3.628512E-02
       335  6.872131E-04  1.838935E-03  2.605128E-02
       336  1.011142E-03  1.847121E-03  4.131332E-02
       337 -8.748425E-04  1.912299E-03  4.813437E-02
       338 -2.758391E-03 -4.581990E-04  5.255319E-02
       339 -2.883817E-03  6.828869E-04  5.267356E-02
       340 -2.911885E-03  1.060824E-03  7.918846E-02
       341 -3.215457E-03  6.074400E-04  8.036150E-02
       342 -3.287528E-03  3.308879E-04  8.057436E-02
       343 -2.253363E-03  1.206940E-03  4.427957E-02
       344 -1.765525E-03  1.856990E-03  6.551666E-02
       345 -2.539853E-03  1.139775E-03  4.564149E-02
       346 -2.235468E-03  1.783807E-03  6.934621E-02
       347 -4.519747E-04  1.674288E-03  4.267259E-02
       348 -1.598812E-03  1.318621E-03  3.134992E-02
       349 -6.521789E-04 -1.276066E-04  8.329193E-03
       350  7.472081E-04  1.139925E-04  5.024862E-03
       351 -1.179672E-03 -9.554170E-04  2.838341E-02
       352 -2.185885E-03 -1.015051E-03  4.406754E-02
       353 -1.525080E-03 -1.822268E-03  6.084243E-02
       354 -2.944479E-03  4.150719E-04  5.313995E-02
       355 -3.254765E-03 -4.641469E-05  8.016544E-02
       356  8.599906E-04 -1.820294E-03  4.041228E-02
       357 -1.316501E-04 -2.173239E-03  5.315400E-02
       358  2.158795E-03  3.587162E-05  3.540209E-03
       359 -7.359215E-04  6.143476E-04  1.173465E-02
       360  3.963541E-04  1.015650E-03  1.948212E-02
       361 -7.679824E-04 -6.858868E-04 -1.187951E-02
       362 -6.890109E-04  3.817613E-04 -1.042688E-02
       363 -6.502064E-04 -2.902568E-04 -9.357949E-03
       364 -7.606579E-04  6.056511E-04 -1.276012E-02
       365  8.133564E-04  9.265326E-05 -7.775809E-03
       366  5.025605E-04 -1.167635E-03 -1.916389E-02
       367 -2.425488E-03  1.529860E-03 -7.323769E-02
       368 -2.167652E-03  1.092965E-03 -4.540568E-02
       369 -1.480742E-03  1.875379E-03 -6.298439E-02
       370 -1.465659E-03 -1.115036E-03 -3.153002E-02
       371  1.151092E-03  1.814982E-03 -4.434753E-02
       372  1.493315E-04 -1.320055E-03 -3.611499E-02
       373 -1.946866E-04  2.307947E-03 -5.648141E-02
       374 -2.898707E-03  9.179077E-04 -7.942387E-02
       375 -2.943104E-03  5.296921E-04 -5.359885E-02
       376 -2.501445E-03  1.018610E-03 -4.679734E-02
       377 -2.967133E-03  3.493181E-04 -8.058985E-02
       378 -1.317249E-03 -2.556694E-03 -3.823323E-02
       379  0.000000E+00  0.000000E+00  0.000000E+00
       380  7.090733E-04 -1.985496E-03 -2.529046E-02
       381  0.000000E+00  0.000000E+00  0.000000E+00
       382  1.957306E-03  1.850777E-05 -2.340110E-03
       383  1.585226E-03 -1.448052E-03 -2.406796E-02
       384  2.056845E-03  6.819864E-05  5.372068E-03
       385  2.008017E-03  2.145193E-04  9.937204E-03
       386  0.000000E+00  0.000000E+00  0.000000E+00
       387  8.006807E-04  1.842002E-03  2.134664E-02
       388  0.000000E+00  0.000000E+00  0.000000E+00
       389 -1.425070E-03  3.094970E-03  3.954064E-02
       390  0.000000E+00  0.000000E+00  0.000000E+00
       391  0.000000E+00  0.000000E+00  0.000000E+00
       392 -1.323184E-03 -2.641205E-03 -4.142390E-02
       393 -8.104405E-04 -2.143707E-03 -6.494444E-02
       394 -5.030371E-04 -2.102839E-03 -6.200848E-02
       395  0.000000E+00  0.000000E+00  0.000000E+00
       396 -3.237150E-03 -1.852495E-03 -5.286336E-02
       397  0.000000E+00  0.000000E+00  0.000000E+00
       398 -3.699624E-03  7.752954E-05 -5.718347E-02
       399  0.000000E+00  0.000000E+00  0.000000E+00
       400 -2.592314E-03  1.984109E-04 -8.375725E-02
       401  0.000000E+00  0.000000E+00  0.000000E+00
       402 -1.909318E-03  1.655965E-03 -7.573441E-02
       403  0.000000E+00  0.000000E+00  0.000000E+00
       404 -3.882942E-04  2.281958E-03 -5.950092E-02
       405  6.592219E-04  2.232443E-03 -2.830478E-02
       406  0.000000E+00  0.000000E+00  0.000000E+00
       407  1.651356E-03  1.573307E-03 -3.105053E-02
       408  1.770658E-03  1.282352E-04 -3.614010E-03
       409  2.254672E-03  4.623682E-04 -1.135619E-02
       410  2.223036E-03  1.048918E-04 -6.552754E-03
       411  0.000000E+00  0.000000E+00  0.000000E+00
       412  2.052731E-03 -2.826359E-04  8.336652E-03
       413  9.519162E-04 -1.879159E-03  1.983179E-02
       414  1.417901E-03 -1.605080E-03  2.748221E-02
       415  1.787599E-03 -1.295521E-04  2.146783E-03
       416  0.000000E+00  0.000000E+00  0.000000E+00
       417 -3.502813E-04 -2.272710E-03  5.632730E-02
       418 -2.509833E-03 -4.421162E-04 -8.378924E-02
       419 -1.916112E-03 -1.522904E-03 -8.044756E-02
       420 -2.970583E-03 -5.975771E-04 -7.966499E-02
       421 -2.994039E-03 -6.563133E-04 -5.324858E-02
       422 -3.070863E-03 -4.107446E-04 -5.370669E-02
       423 -2.292130E-03 -1.704555E-03 -6.831312E-02
       424 -7.815151E-04 -1.785737E-03 -4.736378E-02
       425  1.067276E-03 -1.630586E-03 -4.068693E-02
       426 -2.247976E-03 -1.093419E-03 -4.483069E-02
       427 -1.362077E-03 -1.811241E-03 -6.062754E-02
       428 -2.546238E-03 -1.047989E-03 -4.616223E-02
       429 -1.524543E-03  1.167596E-03 -3.234658E-02
       430 -1.239695E-03  9.950970E-04 -3.027569E-02
       431  0.000000E+00  0.000000E+00  0.000000E+00
       432  0.000000E+00  0.000000E+00  0.000000E+00
       433  0.000000E+00  0.000000E+00  0.000000E+00
       434  0.000000E+00  0.000000E+00  0.000000E+00
       435  0.000000E+00  0.000000E+00  0.000000E+00
       436  0.000000E+00  0.000000E+00  0.000000E+00
       437  0.000000E+00  0.000000E+00  0.000000E+00
       438  0.000000E+00  0.000000E+00  0.000000E+00
       439  0.000000E+00  0.000000E+00  0.000000E+00
       440  0.000000E+00  0.000000E+00  0.000000E+00
       441  0.000000E+00  0.000000E+00  0.000000E+00
       442  0.000000E+00  0.000000E+00  0.000000E+00
       443  0.000000E+00  0.000000E+00  0.000000E+00
       444  0.000000E+00  0.000000E+00  0.000000E+00
       445  0.000000E+00  0.000000E+00  0.000000E+00
       446  0.000000E+00  0.000000E+00  0.000000E+00
       447  0.000000E+00  0.000000E+00  0.000000E+00
       448  0.000000E+00  0.000000E+00  0.000000E+00
       449  1.632714E-03 -4.202582E-04 -5.488576E-02
       450  1.699210E-03 -5.898034E-04 -5.549497E-02
       451  5.280522E-03 -7.948832E-04 -6.904082E-02
       452  5.456284E-03 -1.050814E-03 -6.982221E-02
       453 -1.591379E-03 -1.221367E-04 -8.406065E-02
       454 -1.617399E-03 -7.689554E-04 -8.495585E-02
       455 -1.116280E-02 -2.957613E-04 -7.367400E-02
       456 -1.111973E-02 -7.507684E-04 -7.418631E-02
       457 -8.654694E-03 -3.538015E-04 -5.806562E-02
       458 -8.406476E-03 -3.727671E-04 -5.879691E-02
       459 -2.776404E-03 -4.951596E-05 -7.429614E-02
       460 -3.792668E-03 -1.245502E-04 -8.361160E-02
       461 -9.963506E-04 -3.247574E-04 -8.029294E-02
       462 -3.436429E-03 -4.026838E-04 -6.956075E-02
       463 -3.403838E-03  4.196663E-05 -7.001630E-02
       464 -8.497700E-04 -4.270935E-04 -8.055382E-02
       465 -3.870384E-03 -4.007940E-04 -8.400643E-02
       466 -2.909064E-03  7.007832E-05 -7.454077E-02
       467 -1.062131E-03 -3.531142E-04 -8.082346E-02
       468 -1.358950E-03 -4.169279E-04 -8.010513E-02
       469 -3.494849E-03 -3.206633E-04 -8.414259E-02
       470 -3.459984E-03 -1.857299E-04 -8.357678E-02
       471 -2.721152E-03  2.995668E-04 -8.488370E-02
       472 -2.743140E-03 -3.745880E-04 -8.444343E-02
       473  2.619194E-03 -3.181855E-03 -4.783972E-02
       474  2.856983E-03 -3.242945E-03 -5.377482E-02
       475 -7.708229E-03 -9.436190E-03 -6.900629E-02
       476 -7.531421E-03 -8.882614E-03 -6.596618E-02
       477  7.849405E-04 -7.050883E-03 -8.148279E-02
       478  1.323423E-03 -6.630694E-03 -7.297873E-02
       479  7.143153E-03 -5.347759E-03 -6.638930E-02
       480  7.196320E-03 -5.082488E-03 -6.100519E-02
       481 -6.733526E-03 -5.614681E-03 -5.122705E-02
       482 -6.175595E-03 -5.501093E-03 -5.439934E-02
       483 -2.011273E-03 -1.848167E-03 -6.641899E-02
       484 -2.019494E-03 -4.610690E-03 -7.467749E-02
       485  6.669512E-04 -3.735673E-03 -7.127375E-02
       486 -2.840030E-03 -1.340734E-03 -6.108745E-02
       487 -3.271608E-03 -1.022277E-03 -6.687876E-02
       488  3.846530E-04 -3.967547E-03 -7.591077E-02
       489 -1.972161E-03 -4.892699E-03 -7.856284E-02
       490 -1.978430E-03 -1.781746E-03 -6.964544E-02
       491  3.429419E-04 -3.950519E-03 -7.833578E-02
       492  4.208028E-04 -3.914900E-03 -6.893198E-02
       493 -1.644617E-03 -4.659860E-03 -8.054594E-02
       494 -1.586771E-03 -4.508888E-03 -7.284269E-02
       495 -2.349826E-03 -1.410021E-03 -8.187597E-02
       496 -1.979288E-03 -1.747585E-03 -7.326559E-02
       497  5.979075E-03 -4.515493E-03 -3.348972E-02
       498  6.115007E-03 -4.563626E-03 -4.472569E-02
       499  5.761062E-04 -1.159910E-02 -5.404604E-02
       500  2.157812E-04 -1.166569E-02 -4.910790E-02
       501  7.190196E-03 -9.058025E-03 -6.655700E-02
       502  7.138531E-03 -8.785385E-03 -5.181231E-02
       503  1.257412E-02 -7.495398E-03 -5.363295E-02
       504  1.250882E-02 -7.538074E-03 -4.357047E-02
       505 -1.528051E-03 -7.236642E-03 -3.852548E-02
       506 -1.132248E-03 -6.937684E-03 -4.285914E-02
       507 -5.434068E-04 -2.449420E-03 -4.947038E-02
       508  2.118696E-03 -6.087571E-03 -5.561330E-02
       509  4.053358E-03 -5.005654E-03 -5.215507E-02
       510 -1.647560E-03 -1.803497E-03 -4.377921E-02
       511  4.044151E-03 -5.137641E-03 -6.055514E-02
       512 -2.078826E-03 -1.592525E-03 -5.430607E-02
       513  2.216837E-03 -6.154745E-03 -6.185889E-02
       514 -6.045807E-04 -2.343032E-03 -5.429860E-02
       515  3.739237E-03 -5.317144E-03 -6.479042E-02
       516  4.090480E-03 -5.026973E-03 -4.814612E-02
       517  2.501309E-03 -5.887408E-03 -6.526453E-02
       518  2.410033E-03 -5.885426E-03 -5.230299E-02
       519 -8.496248E-04 -2.087981E-03 -6.676806E-02
       520 -4.713290E-04 -2.093109E-03 -5.188201E-02
       521  9.812032E-03 -3.321460E-03 -1.346529E-02
       522  9.856592E-03 -3.239232E-03 -2.876582E-02
       523  1.418137E-02 -6.278664E-03 -2.229053E-02
       524  9.675731E-03 -8.085196E-03 -3.243496E-02
       525  9.243461E-03 -8.443353E-03 -2.555315E-02
       526  1.892828E-02 -5.329964E-03 -3.333752E-02
       527  1.844828E-02 -5.497950E-03 -1.967503E-02
       528  1.435505E-02 -6.433159E-03 -4.252233E-02
       529  4.224016E-03 -4.953643E-03 -2.589843E-02
       530  4.080239E-03 -5.275957E-03 -2.034162E-02
       531  1.544709E-03 -1.644993E-03 -2.571061E-02
       532  6.891218E-03 -4.320808E-03 -2.779063E-02
       533  7.845875E-03 -3.630114E-03 -2.517584E-02
       534 -4.569109E-04 -1.119985E-03 -1.949378E-02
       535  8.025376E-03 -3.614172E-03 -3.627226E-02
       536 -8.148981E-04 -1.263001E-03 -3.370479E-02
       537  7.095368E-03 -4.304650E-03 -3.675521E-02
       538  1.259193E-03 -1.620044E-03 -3.275234E-02
       539  7.876324E-03 -3.783359E-03 -4.180561E-02
       540  7.888603E-03 -3.644293E-03 -1.970990E-02
       541  7.080269E-03 -4.191392E-03 -4.130291E-02
       542  6.959574E-03 -4.162509E-03 -2.332100E-02
       543  6.163231E-04 -1.483040E-03 -4.243590E-02
       544  1.213254E-03 -1.298830E-03 -2.253298E-02
       545  1.097909E-02 -6.188689E-06  8.177593E-03
       546  1.098754E-02  1.223105E-04 -8.042158E-03
       547  1.723799E-02  2.482673E-04  1.145434E-02
       548  1.385789E-02  1.255633E-04 -3.614292E-03
       549  1.393004E-02 -2.171641E-04  4.626622E-03
       550  2.086004E-02  1.353672E-04 -7.100078E-03
       551  2.101929E-02 -2.135347E-04  7.822609E-03
       552  1.731286E-02 -8.128094E-05 -1.074904E-02
       553  7.227023E-03  1.242460E-05 -3.089793E-03
       554  7.328565E-03 -2.236355E-06  4.219830E-03
       555  2.041512E-03  3.722751E-05  4.438675E-03
       556  9.238967E-03  7.226234E-05  5.364844E-03
       557  9.545032E-03  1.349667E-04  6.528158E-03
       558  8.101671E-05  8.759461E-05  7.871685E-03
       559  9.610882E-03 -3.005154E-05 -5.776645E-03
       560 -7.854890E-05 -2.960415E-05 -7.594888E-03
       561  9.123005E-03  4.513163E-05 -4.679034E-03
       562  2.041727E-03  2.253837E-05 -3.482562E-03
       563  9.621435E-03 -1.372041E-04 -1.178963E-02
       564  9.554874E-03  2.203413E-04  1.245161E-02