
 displacements (vx,vy,vz) for set NALL and time  0.1000000E+01

         1 -1.363985E-01  2.581346E-02 -8.077887E-01
         2  1.452844E-01 -5.874065E-02 -4.200927E-01
         3  1.372284E-01 -5.765695E-02 -6.304212E-01
         4  1.468257E-01 -5.989584E-02 -4.190802E-01
         5  1.391513E-01 -5.834100E-02 -6.310719E-01
         6  1.457451E-01 -5.967593E-02 -4.197271E-01
         7  5.695054E-02  1.422920E-01 -6.312457E-01
         8  5.813682E-02 -1.408765E-01 -6.329194E-01
         9  1.146300E-01 -1.106774E-01 -4.239268E-01
        10  1.136151E-01 -1.114186E-01 -4.231923E-01
        11  1.500314E-01 -1.170322E-03 -6.301663E-01
        12  1.346708E-01  2.856858E-02 -8.085417E-01
        13  1.325464E-01 -2.338442E-02 -8.059408E-01
        14  1.390676E-01 -5.651405E-02 -6.313439E-01
        15  5.928503E-02 -1.457857E-01 -4.254941E-01
        16 -6.071191E-02 -1.417164E-01 -6.281063E-01
        17 -6.855399E-02 -1.484509E-01 -1.782913E-01
        18 -6.065713E-02 -1.392451E-01 -6.265872E-01
        19 -5.940262E-02 -1.406752E-01 -6.267370E-01
        20 -7.978797E-02 -1.138884E-01 -8.068559E-01
        21 -3.153295E-02 -1.321403E-01 -8.029687E-01
        22 -1.135270E-01 -7.720450E-02 -8.011788E-01
        23 -1.051080E-01 -1.074086E-01 -6.261094E-01
        24 -1.335827E-01 -2.706334E-02 -8.034953E-01
        25 -1.353002E-01 -2.716110E-02 -8.069263E-01
        26 -1.348334E-01  2.586793E-02 -8.042745E-01
        27 -1.526187E-01 -5.342205E-04 -6.276815E-01
        28 -1.525704E-01 -1.931796E-03 -6.289489E-01
        29 -1.660166E-01 -3.033974E-03 -1.768546E-01
        30 -1.624928E-01 -1.281266E-03 -4.124462E-01
        31 -5.747325E-02  1.486591E-01 -4.188254E-01
        32 -1.101084E-01 -1.155671E-01 -4.142216E-01
        33 -1.479756E-01 -5.918879E-02 -4.155987E-01
        34 -1.479799E-01 -5.937381E-02 -4.173862E-01
        35 -1.395669E-01 -5.782222E-02 -6.271693E-01
        36 -1.093681E-01 -1.152156E-01 -4.181284E-01
        37 -5.669879E-02  1.393744E-01 -6.296922E-01
        38 -5.559856E-02  1.410838E-01 -6.308789E-01
        39 -5.796546E-02  1.483774E-01 -4.181094E-01
        40 -7.708212E-02  1.155276E-01 -8.046245E-01
        41 -3.043957E-02  1.321910E-01 -8.044042E-01
        42  2.618139E-02  1.322792E-01 -8.050932E-01
        43 -2.523751E-03  1.510887E-01 -6.310841E-01
        44 -1.404560E-01  5.840332E-02 -6.274840E-01
        45 -1.141670E-01  7.222744E-02 -8.076429E-01
        46 -1.490468E-01  6.218905E-02 -4.124823E-01
        47 -1.400341E-01  5.951462E-02 -6.282879E-01
        48 -1.496013E-01  6.156600E-02 -4.129228E-01
        49 -1.113886E-01  1.030662E-01 -6.310800E-01
        50 -1.127944E-01  7.131783E-02 -8.043804E-01
        51 -1.099506E-01  1.042804E-01 -6.287437E-01
        52 -1.181566E-01  1.094196E-01 -4.181265E-01
        53 -1.178187E-01  1.088695E-01 -4.200891E-01
        54 -1.171054E-01  1.095542E-01 -4.156736E-01
        55 -1.173152E-01  1.129287E-01 -1.878480E-01
        56 -2.842599E-04  1.606337E-01 -4.164525E-01
        57  7.527030E-02  1.108601E-01 -8.072820E-01
        58  6.035708E-02  1.481757E-01 -4.168333E-01
        59  6.103678E-02  1.480597E-01 -4.177010E-01
        60  5.805916E-02  1.514687E-01 -1.827879E-01
        61  5.881086E-02  1.527372E-01 -1.840290E-01
        62 -2.271522E-03 -1.576295E-01 -4.205304E-01
        63 -1.861529E-03 -1.528092E-01 -6.310382E-01
        64 -2.587643E-03 -1.502116E-01 -6.300234E-01
        65 -7.137448E-03 -1.612122E-01 -1.914496E-01
        66 -2.400102E-03 -1.588858E-01 -4.195089E-01
        67 -3.037461E-02 -1.335872E-01 -8.065055E-01
        68  2.656229E-02 -1.316863E-01 -8.030142E-01
        69  7.502741E-02 -1.141274E-01 -8.089494E-01
        70  5.797857E-02 -1.371778E-01 -6.325169E-01
        71  5.992315E-02 -1.468535E-01 -4.240203E-01
        72  5.997357E-02 -1.513153E-01 -1.958718E-01
        73  6.044913E-02 -1.518925E-01 -1.966254E-01
        74 -1.886816E-03 -1.587249E-01 -4.196514E-01
        75  4.634570E-04  1.594069E-01 -4.192006E-01
        76 -1.175527E-03  1.541041E-01 -6.319942E-01
        77  1.134884E-01  7.527109E-02 -8.100599E-01
        78  1.045034E-01  1.083955E-01 -6.311390E-01
        79  1.034927E-01  1.094729E-01 -6.335232E-01
        80  7.453793E-02 -1.130063E-01 -8.051562E-01
        81  1.126232E-01 -7.374472E-02 -8.060069E-01
        82  1.070035E-01 -1.037892E-01 -6.349222E-01
        83  1.060546E-01  1.102150E-01 -6.314164E-01
        84  1.099769E-01  1.144692E-01 -4.179669E-01
        85  1.107937E-01  1.163464E-01 -4.196421E-01
        86  1.398552E-01  5.667442E-02 -6.325641E-01
        87  1.385726E-01  5.759882E-02 -6.323304E-01
        88  1.405626E-01  5.812759E-02 -6.330174E-01
        89  1.485290E-01  5.928017E-02 -4.180769E-01
        90  1.484109E-01  6.002647E-02 -4.179751E-01
        91  1.479348E-01 -6.451494E-02 -1.862948E-01
        92  1.497679E-01 -6.557511E-02 -1.862560E-01
        93  1.174778E-01 -1.153259E-01 -1.912337E-01
        94  1.602343E-01 -8.927290E-04 -4.149999E-01
        95  1.586888E-01 -2.158697E-03 -4.181382E-01
        96  1.158666E-01  1.167088E-01 -1.858029E-01
        97  1.512093E-01  6.255381E-02 -1.839579E-01
        98 -2.799019E-02 -6.584643E-04 -1.755851E-01
        99 -3.049300E-02 -1.420192E-03 -4.159289E-01
       100 -2.760692E-02 -1.273952E-03 -6.337064E-01
       101 -2.264365E-02  3.627219E-03 -8.208990E-01
       102 -1.668846E-01 -3.073317E-03 -1.781255E-01
       103 -1.549997E-01 -7.662994E-04 -6.283307E-01
       104 -3.100804E-02  1.136049E-03 -4.170856E-01
       105 -1.627124E-01 -1.972783E-03 -4.138652E-01
       106 -2.791445E-02  4.767147E-03 -6.313468E-01
       107 -1.550880E-01 -1.672710E-03 -6.306031E-01
       108 -1.615924E-01 -2.164868E-03 -4.151585E-01
       109 -3.034521E-02 -2.911455E-03 -4.144955E-01
       110 -1.612920E-01 -1.212810E-03 -4.131148E-01
       111 -1.144174E-01 -7.793996E-02 -8.056385E-01
       112 -2.149711E-02 -4.559917E-03 -8.238381E-01
       113 -1.535979E-01 -5.957680E-02 -1.849074E-01
       114 -1.496474E-01 -5.960773E-02 -4.159459E-01
       115 -1.542363E-01 -5.985251E-02 -1.860383E-01
       116 -2.898256E-02 -1.253469E-02 -4.201533E-01
       117 -1.413262E-01 -5.648953E-02 -6.284805E-01
       118 -1.492334E-01 -6.004220E-02 -4.154950E-01
       119 -2.570769E-02 -9.482608E-03 -6.335251E-01
       120 -1.436705E-01 -5.759140E-02 -6.299828E-01
       121 -2.428926E-02 -1.509401E-02 -6.293050E-01
       122 -2.906979E-02 -9.969943E-03 -4.180536E-01
       123 -1.415001E-01 -5.831725E-02 -6.278777E-01
       124 -2.793570E-02 -1.396153E-02 -4.164091E-01
       125 -1.795408E-02 -2.108651E-02 -1.829549E-01
       126 -1.906674E-02 -2.233830E-02 -4.170988E-01
       127 -1.079975E-01 -1.197474E-01 -1.825801E-01
       128 -1.291192E-02 -1.815808E-02 -8.206743E-01
       129 -1.098170E-01 -1.218333E-01 -1.854525E-01
       130 -1.099029E-01 -1.161028E-01 -4.163100E-01
       131 -1.045389E-01 -1.082881E-01 -6.274812E-01
       132 -2.027530E-02 -1.882520E-02 -6.327711E-01
       133 -1.834021E-02 -2.011752E-02 -6.322847E-01
       134 -1.873755E-02 -2.278791E-02 -4.145085E-01
       135 -2.403137E-02 -1.888187E-02 -4.201309E-01
       136 -1.062408E-01 -1.097799E-01 -6.287174E-01
       137 -1.066459E-01 -1.090490E-01 -6.266487E-01
       138 -1.092254E-01 -1.144366E-01 -4.148178E-01
       139 -1.656810E-02 -2.229987E-02 -6.278299E-01
       140 -5.387481E-03 -2.152701E-02 -8.223927E-01
       141 -6.933021E-02 -1.498154E-01 -1.818432E-01
       142 -1.002717E-02 -2.855423E-02 -1.806459E-01
       143 -6.385718E-02 -1.475289E-01 -4.122724E-01
       144 -1.219023E-02 -2.371881E-02 -6.320767E-01
       145 -7.897567E-02 -1.126060E-01 -8.043111E-01
       146 -6.034129E-02 -1.427340E-01 -6.272483E-01
       147 -6.319423E-02 -1.478210E-01 -4.120541E-01
       148 -6.260721E-02 -1.470103E-01 -4.125461E-01
       149 -1.246498E-02 -2.649661E-02 -4.142189E-01
       150 -1.057966E-02 -2.783084E-02 -4.157593E-01
       151 -1.425773E-02 -2.679690E-02 -4.121239E-01
       152 -6.353060E-02 -1.468079E-01 -4.140132E-01
       153  2.917602E-03 -2.156003E-02 -8.242756E-01
       154  2.622836E-02 -1.329601E-01 -8.067637E-01
       155 -7.338692E-03 -1.635999E-01 -1.943252E-01
       156  3.294644E-04 -2.975351E-02 -4.223693E-01
       157  1.033492E-04 -2.756551E-02 -6.363794E-01
       158 -2.105575E-03 -2.691998E-02 -6.350178E-01
       159 -1.638747E-03 -1.502475E-01 -6.299258E-01
       160 -1.723221E-03 -1.523332E-01 -6.304729E-01
       161 -1.715639E-03 -1.579757E-01 -4.201917E-01
       162  1.328288E-02 -3.035191E-02 -1.970590E-01
       163  1.218645E-02 -2.812147E-02 -4.272309E-01
       164  5.900545E-02 -1.469343E-01 -4.238031E-01
       165  5.656502E-02 -1.386270E-01 -6.324623E-01
       166  1.436286E-02 -2.390022E-02 -6.347860E-01
       167  5.859869E-02 -1.392621E-01 -6.338744E-01
       168  5.870010E-02 -1.459924E-01 -4.244910E-01
       169  1.135703E-01 -7.467302E-02 -8.096640E-01
       170  1.736669E-02 -2.001025E-02 -6.396681E-01
       171  1.098627E-02 -1.853893E-02 -8.238222E-01
       172  1.176505E-01 -1.148337E-01 -1.920387E-01
       173  1.055603E-01 -1.049472E-01 -6.339117E-01
       174  1.072584E-01 -1.066303E-01 -6.344590E-01
       175  1.963573E-02 -2.222992E-02 -4.277683E-01
       176  1.084178E-01 -1.054265E-01 -6.364603E-01
       177  1.139636E-01 -1.099762E-01 -4.259755E-01
       178  1.847719E-02 -2.414997E-02 -4.277443E-01
       179  1.123607E-01 -1.104928E-01 -4.235107E-01
       180  1.636671E-02 -1.179591E-02 -8.278558E-01
       181  1.338879E-01 -2.367143E-02 -8.097863E-01
       182  1.953343E-02 -3.847923E-03 -8.279893E-01
       183  2.654560E-02 -1.072166E-02 -4.227214E-01
       184  2.272439E-02 -1.099968E-02 -6.359763E-01
       185  2.287515E-02 -1.234805E-02 -6.362314E-01
       186  2.501963E-02 -7.830306E-03 -6.325615E-01
       187  2.560658E-02 -1.187438E-02 -4.227192E-01
       188  1.467436E-01 -5.912077E-02 -4.195685E-01
       189  1.411295E-01 -5.765119E-02 -6.323142E-01
       190  2.494164E-02 -1.469567E-02 -4.217592E-01
       191  2.750993E-02 -9.139521E-03 -4.177351E-01
       192  1.644042E-01  3.036764E-04 -1.795951E-01
       193  2.564361E-02 -2.330865E-04 -6.361123E-01
       194  1.506537E-01 -2.857585E-03 -6.317838E-01
       195  1.341685E-01  2.809842E-02 -8.040762E-01
       196  1.983181E-02 -3.744908E-03 -8.251991E-01
       197  2.777128E-02 -2.479701E-03 -4.187364E-01
       198  1.643422E-01  6.165903E-04 -1.802716E-01
       199  2.585828E-02 -5.587664E-03 -6.328539E-01
       200  1.529648E-01 -2.879696E-03 -6.331511E-01
       201  2.695902E-02  2.315534E-03 -4.188624E-01
       202  1.602251E-01 -2.194602E-03 -4.165322E-01
       203  1.522134E-01 -1.503919E-03 -6.313411E-01
       204  1.593071E-01 -8.634044E-04 -4.159958E-01
       205  2.005600E-02  4.303828E-03 -8.280320E-01
       206  1.514305E-01  6.274687E-02 -1.839254E-01
       207  1.123271E-01  7.436312E-02 -8.065517E-01
       208  2.334327E-02  1.064829E-02 -6.381137E-01
       209  2.612480E-02  5.312553E-03 -6.337899E-01
       210  2.710588E-02  5.825677E-03 -4.172100E-01
       211  2.682205E-02  9.292512E-03 -4.212739E-01
       212  1.474534E-01  5.878542E-02 -4.197734E-01
       213  1.473889E-01  5.969766E-02 -4.185215E-01
       214  1.423600E-01  5.789090E-02 -6.337160E-01
       215  1.154863E-01  1.165209E-01 -1.858433E-01
       216  1.911465E-02  2.209344E-02 -4.216768E-01
       217  1.966631E-02  2.051394E-02 -1.854092E-01
       218  2.189221E-02  1.638846E-02 -6.348952E-01
       219  1.911314E-02  1.841411E-02 -6.379556E-01
       220  1.712069E-02  1.967995E-02 -6.382605E-01
       221  1.099037E-01  1.156590E-01 -4.215505E-01
       222  2.124320E-02  2.041004E-02 -4.220110E-01
       223  1.113354E-01  1.154809E-01 -4.181786E-01
       224  1.053272E-01  1.110407E-01 -6.353261E-01
       225  7.548934E-02  1.128158E-01 -8.101522E-01
       226  5.653529E-02  1.391450E-01 -6.303316E-01
       227  8.433174E-03  2.421443E-02 -6.361084E-01
       228  9.486493E-03  2.413562E-02 -6.361535E-01
       229  1.215601E-02  1.728468E-02 -8.234007E-01
       230  5.517555E-02  1.400455E-01 -6.308604E-01
       231  5.977311E-02  1.469363E-01 -4.178276E-01
       232  1.098361E-02  2.655616E-02 -4.198064E-01
       233  9.396853E-03  2.745748E-02 -4.201752E-01
       234  5.742109E-02  1.415774E-01 -6.313907E-01
       235  6.071796E-02  1.469990E-01 -4.188001E-01
       236 -3.055190E-02  1.333340E-01 -8.080635E-01
       237  2.515998E-02  1.336430E-01 -8.089905E-01
       238  3.114203E-03  1.643152E-01 -1.888235E-01
       239  2.784059E-03  1.635582E-01 -1.874088E-01
       240 -4.299100E-04  1.508349E-01 -6.311403E-01
       241 -4.264469E-03  2.077570E-02 -8.239252E-01
       242  6.893712E-04  3.116268E-02 -1.857636E-01
       243 -1.418546E-05  2.645654E-02 -6.371826E-01
       244 -2.644637E-03  2.636759E-02 -6.369575E-01
       245  5.436697E-04  3.022309E-02 -4.174060E-01
       246 -3.969508E-04  1.595213E-01 -4.175112E-01
       247  6.583210E-04  1.606721E-01 -4.180231E-01
       248 -1.526640E-03  2.994557E-02 -4.203721E-01
       249 -2.391109E-03  3.082155E-02 -4.188831E-01
       250 -2.211102E-03  1.532491E-01 -6.321906E-01
       251 -5.819967E-02  1.518665E-01 -1.917135E-01
       252 -5.834787E-02  1.519127E-01 -1.934474E-01
       253 -1.289365E-02  1.743554E-02 -8.239985E-01
       254 -8.990212E-03  2.572592E-02 -6.355698E-01
       255 -1.509593E-02  2.414889E-02 -6.331961E-01
       256 -5.667698E-02  1.430792E-01 -6.322999E-01
       257 -5.776804E-02  1.474142E-01 -4.183526E-01
       258 -1.007392E-02  2.867900E-02 -4.199072E-01
       259 -1.166476E-02  2.788401E-02 -4.218397E-01
       260 -5.709130E-02  1.479679E-01 -4.203275E-01
       261 -1.320622E-02  2.755633E-02 -4.219478E-01
       262 -5.726037E-02  1.411635E-01 -6.300714E-01
       263 -7.775891E-02  1.164959E-01 -8.081614E-01
       264 -1.182940E-01  1.141356E-01 -1.861539E-01
       265 -2.272661E-02  1.891921E-02 -4.187086E-01
       266 -2.154245E-02  2.131625E-02 -4.206183E-01
       267 -1.979304E-02  1.808078E-02 -6.344647E-01
       268 -1.117763E-01  1.058614E-01 -6.285256E-01
       269 -1.127775E-01  1.047725E-01 -6.334361E-01
       270 -1.697979E-02  2.275050E-02 -6.334149E-01
       271 -1.161521E-01  1.087199E-01 -4.154493E-01
       272 -2.386943E-02  1.706789E-02 -4.162691E-01
       273 -1.524546E-01  6.400722E-02 -1.798494E-01
       274 -2.679493E-02  1.020457E-02 -1.766040E-01
       275 -1.524440E-01  6.395846E-02 -1.788582E-01
       276 -2.774480E-02  1.016149E-02 -4.157431E-01
       277 -1.932373E-02  1.109313E-02 -8.226593E-01
       278 -2.421708E-02  1.422622E-02 -6.298482E-01
       279 -2.553694E-02  1.062211E-02 -6.337973E-01
       280 -1.432051E-01  5.970516E-02 -6.288543E-01
       281 -1.422384E-01  6.008383E-02 -6.292100E-01
       282 -2.545737E-02  9.548478E-03 -6.340057E-01
       283 -1.486621E-01  6.096751E-02 -4.140226E-01
       284 -2.941984E-02  8.273512E-03 -4.161454E-01
       285 -1.481747E-01  6.183789E-02 -4.137968E-01
       286  0.000000E+00  0.000000E+00  0.000000E+00
       287  0.000000E+00  0.000000E+00  0.000000E+00
       288  0.000000E+00  0.000000E+00  0.000000E+00
       289  0.000000E+00  0.000000E+00  0.000000E+00
       290  0.000000E+00  0.000000E+00  0.000000E+00
       291  0.000000E+00  0.000000E+00  0.000000E+00
       292  0.000000E+00  0.000000E+00  0.000000E+00
       293  0.000000E+00  0.000000E+00  0.000000E+00
       294  0.000000E+00  0.000000E+00  0.000000E+00
       295  0.000000E+00  0.000000E+00  0.000000E+00
       296  0.000000E+00  0.000000E+00  0.000000E+00
       297  0.000000E+00  0.000000E+00  0.000000E+00
       298  0.000000E+00  0.000000E+00  0.000000E+00
       299  0.000000E+00  0.000000E+00  0.000000E+00
       300  0.000000E+00  0.000000E+00  0.000000E+00
       301  0.000000E+00  0.000000E+00  0.000000E+00
       302  0.000000E+00  0.000000E+00  0.000000E+00
       303  0.000000E+00  0.000000E+00  0.000000E+00
       304  0.000000E+00  0.000000E+00  0.000000E+00
       305  0.000000E+00  0.000000E+00  0.000000E+00
       306  0.000000E+00  0.000000E+00  0.000000E+00
       307  0.000000E+00  0.000000E+00  0.000000E+00
       308  0.000000E+00  0.000000E+00  0.000000E+00
       309  0.000000E+00  0.000000E+00  0.000000E+00
       310  0.000000E+00  0.000000E+00  0.000000E+00
       311  0.000000E+00  0.000000E+00  0.000000E+00
       312  0.000000E+00  0.000000E+00  0.000000E+00
       313  0.000000E+00  0.000000E+00  0.000000E+00
       314  0.000000E+00  0.000000E+00  0.000000E+00
       315  0.000000E+00  0.000000E+00  0.000000E+00
       316  2.038251E-02  4.010856E-03 -8.251276E-01
       317  2.392691E-02  8.255162E-03 -6.384501E-01
       318  2.679758E-02  3.018942E-03 -6.335526E-01
       319  1.652303E-02  1.223639E-02 -8.248691E-01
       320  2.307453E-02  1.398205E-02 -6.351232E-01
       321  2.254099E-02  1.997481E-02 -4.215669E-01
       322  1.533638E-02  2.243576E-02 -6.340323E-01
       323  1.311530E-02  2.351941E-02 -6.334762E-01
       324  1.334654E-02  2.574464E-02 -4.202112E-01
       325  8.320961E-03  2.647040E-02 -1.839120E-01
       326  1.299889E-02 -2.757357E-02 -4.275047E-01
       327  1.128321E-02 -2.463035E-02 -6.369934E-01
       328  1.626027E-02 -2.273635E-02 -6.357829E-01
       329  4.110409E-03  2.073246E-02 -8.241658E-01
       330  3.177189E-03  2.752687E-02 -6.330749E-01
       331  1.423555E-04  3.003836E-02 -4.202990E-01
       332 -5.139483E-03  2.774638E-02 -6.322059E-01
       333 -1.833738E-02  1.937311E-02 -6.366167E-01
       334 -1.156834E-02  2.485681E-02 -6.363552E-01
       335 -2.276244E-02  1.620279E-02 -6.302635E-01
       336 -2.714156E-02  1.243591E-03 -6.358666E-01
       337 -2.733242E-02  7.020311E-03 -6.311242E-01
       338 -2.864489E-02 -7.872409E-03 -1.816591E-01
       339  0.000000E+00  0.000000E+00  0.000000E+00
       340  0.000000E+00  0.000000E+00  0.000000E+00
       341  0.000000E+00  0.000000E+00  0.000000E+00
       342  0.000000E+00  0.000000E+00  0.000000E+00
       343 -1.518643E-03 -2.911965E-02 -1.895614E-01
       344 -9.834937E-03 -2.877121E-02 -4.155771E-01
       345  2.479286E-03 -3.074853E-02 -4.219560E-01
       346  4.001434E-03 -2.876475E-02 -6.336478E-01
       347  6.575517E-03 -2.791228E-02 -6.338276E-01
       348 -1.514527E-04 -3.261445E-02 -1.946463E-01
       349  8.362320E-03 -2.979863E-02 -4.223167E-01
       350  1.015968E-02 -3.180744E-02 -1.963635E-01
       351  9.767518E-03 -2.883583E-02 -4.274508E-01
       352  0.000000E+00  0.000000E+00  0.000000E+00
       353 -2.341069E-02 -2.068705E-02 -1.850665E-01
       354 -2.239420E-02 -1.932177E-02 -4.197540E-01
       355  0.000000E+00  0.000000E+00  0.000000E+00
       356 -3.038143E-02 -1.166308E-02 -1.857725E-01
       357  0.000000E+00  0.000000E+00  0.000000E+00
       358  0.000000E+00  0.000000E+00  0.000000E+00
       359 -2.791275E-02 -3.399230E-03 -1.746457E-01
       360 -3.069548E-02  2.758611E-03 -4.125221E-01
       361  0.000000E+00  0.000000E+00  0.000000E+00
       362  0.000000E+00  0.000000E+00  0.000000E+00
       363 -2.688485E-02  1.128544E-02 -1.774149E-01
       364 -2.708566E-02  1.306978E-02 -4.152568E-01
       365 -2.413609E-02  2.305716E-02 -1.863994E-01
       366 -2.611166E-02  1.419594E-02 -4.134912E-01
       367 -1.969835E-02  2.297576E-02 -4.203719E-01
       368 -1.698698E-02  2.167068E-02 -1.868505E-01
       369 -1.238613E-02  2.932328E-02 -1.928092E-01
       370 -9.251338E-03  2.884833E-02 -4.179247E-01
       371 -7.042300E-03  2.728408E-02 -6.317139E-01
       372 -8.316389E-03  3.125659E-02 -1.907073E-01
       373  0.000000E+00  0.000000E+00  0.000000E+00
       374 -2.146902E-03  3.107357E-02 -1.886736E-01
       375  8.283230E-03  2.833880E-02 -4.193150E-01
       376  5.567979E-03  2.685371E-02 -6.327313E-01
       377  6.550439E-03  2.375592E-02 -1.796623E-01
       378  0.000000E+00  0.000000E+00  0.000000E+00
       379  1.804474E-02  2.320507E-02 -4.163741E-01
       380 -2.838176E-02 -4.305285E-03 -6.300885E-01
       381 -2.771557E-02 -6.553640E-03 -6.299126E-01
       382 -3.006017E-02 -8.178887E-03 -4.169065E-01
       383 -2.164447E-02 -4.676300E-03 -8.210914E-01
       384 -2.301362E-02 -1.718984E-02 -6.294318E-01
       385 -1.113653E-02 -2.632050E-02 -1.788394E-01
       386 -1.475707E-02 -2.345640E-02 -6.278385E-01
       387 -1.862187E-02 -1.250285E-02 -8.202311E-01
       388 -2.494122E-02 -1.171601E-02 -6.331652E-01
       389 -5.023872E-03 -2.773860E-02 -6.301839E-01
       390 -7.288651E-03 -2.706520E-02 -6.294798E-01
       391 -5.417679E-03 -2.230290E-02 -8.201372E-01
       392 -1.012571E-02 -2.508857E-02 -6.329435E-01
       393 -4.717428E-03 -2.960498E-02 -4.174834E-01
       394 -3.054629E-03 -3.020544E-02 -4.228502E-01
       395  3.043794E-03 -2.186377E-02 -8.217018E-01
       396  9.995268E-03 -2.525534E-02 -6.373667E-01
       397  2.040862E-02  2.168322E-02 -1.844697E-01
       398  2.629488E-02  1.204711E-02 -4.217392E-01
       399  2.664848E-02  1.365801E-02 -4.222562E-01
       400  2.734335E-02  1.107687E-02 -1.839521E-01
       401  2.702600E-02  8.492307E-03 -1.831665E-01
       402  2.169515E-02 -1.975457E-02 -4.274298E-01
       403  2.255858E-02 -2.104952E-02 -1.900964E-01
       404  2.293678E-02 -1.804818E-02 -4.216101E-01
       405  1.994312E-02 -2.148555E-02 -1.886122E-01
       406  0.000000E+00  0.000000E+00  0.000000E+00
       407  0.000000E+00  0.000000E+00  0.000000E+00
       408  2.107819E-02 -1.263356E-02 -1.841612E-01
       409  1.858309E-02 -1.818711E-02 -6.396316E-01
       410  1.733091E-02 -1.230647E-02 -8.254924E-01
       411  2.114224E-02 -1.674197E-02 -6.346150E-01
       412  2.225720E-02 -1.487733E-02 -6.339077E-01
       413  2.580648E-02 -1.133282E-02 -1.855057E-01
       414  2.814578E-02 -3.653151E-03 -4.167300E-01
       415  2.508856E-02 -2.388248E-03 -6.371448E-01
       416  2.722305E-02  4.627228E-03 -4.195584E-01
       417  2.600767E-02 -7.439207E-04 -1.780180E-01
       418  0.000000E+00  0.000000E+00  0.000000E+00
       419  2.689444E-02 -2.454481E-04 -1.767311E-01
       420  0.000000E+00  0.000000E+00  0.000000E+00
       421 -1.832460E-02 -1.234829E-02 -8.225841E-01
       422 -2.226323E-02  3.656091E-03 -8.234280E-01
       423 -1.933857E-02  1.104521E-02 -8.252794E-01
       424 -1.241243E-02 -1.773192E-02 -8.228461E-01
       425 -4.363376E-03  2.078292E-02 -8.269978E-01
       426 -1.241940E-02  1.700264E-02 -8.264174E-01
       427  4.305176E-03  2.058253E-02 -8.274719E-01
       428  1.177279E-02  1.749381E-02 -8.270891E-01
       429  1.064657E-02 -1.818627E-02 -8.263764E-01
       430  1.627735E-02  1.208366E-02 -8.273619E-01
       431  0.000000E+00  0.000000E+00  0.000000E+00
       432  0.000000E+00  0.000000E+00  0.000000E+00
       433  0.000000E+00  0.000000E+00  0.000000E+00
       434  0.000000E+00  0.000000E+00  0.000000E+00
       435  0.000000E+00  0.000000E+00  0.000000E+00
       436  0.000000E+00  0.000000E+00  0.000000E+00
       437  0.000000E+00  0.000000E+00  0.000000E+00
       438  0.000000E+00  0.000000E+00  0.000000E+00
       439  0.000000E+00  0.000000E+00  0.000000E+00
       440  0.000000E+00  0.000000E+00  0.000000E+00
       441  0.000000E+00  0.000000E+00  0.000000E+00
       442  0.000000E+00  0.000000E+00  0.000000E+00
       443  0.000000E+00  0.000000E+00  0.000000E+00
       444  0.000000E+00  0.000000E+00  0.000000E+00
       445  0.000000E+00  0.000000E+00  0.000000E+00
       446  0.000000E+00  0.000000E+00  0.000000E+00
       447  0.000000E+00  0.000000E+00  0.000000E+00
       448  0.000000E+00  0.000000E+00  0.000000E+00
       449 -8.401071E-02 -1.680384E-02 -8.220665E-01
       450 -8.433247E-02  1.502577E-02 -8.216787E-01
       451  1.435790E-01 -5.822297E-02 -5.259425E-01
       452  1.434639E-01 -5.830045E-02 -5.270360E-01
       453  5.857240E-02  1.445579E-01 -5.251831E-01
       454  5.861016E-02 -1.434498E-01 -5.285651E-01
       455  1.107490E-01 -1.086226E-01 -5.323759E-01
       456  1.097859E-01 -1.092732E-01 -5.320623E-01
       457  1.380111E-01  1.619827E-03 -7.285478E-01
       458  1.393204E-01 -7.803477E-04 -7.293404E-01
       459  1.279101E-01  5.274099E-02 -7.286595E-01
       460  1.264467E-01  5.516136E-02 -7.285309E-01
       461  5.985048E-02  1.446541E-01 -5.270155E-01
       462  1.279563E-01 -5.123551E-02 -7.281808E-01
       463  1.285666E-01 -5.424805E-02 -7.279630E-01
       464  5.922826E-02 -1.431963E-01 -5.310904E-01
       465 -6.257040E-02 -1.446141E-01 -5.214178E-01
       466 -6.607155E-02 -1.490243E-01 -2.947465E-01
       467 -6.706421E-02 -1.506966E-01 -2.978006E-01
       468 -5.485687E-02 -1.295316E-01 -7.245985E-01
       469 -5.777269E-02 -1.284670E-01 -7.257500E-01
       470 -6.123996E-02 -1.455280E-01 -5.215726E-01
       471 -9.819686E-02 -1.001583E-01 -7.238163E-01
       472 -9.946301E-02 -9.740958E-02 -7.239736E-01
       473 -1.294699E-01 -5.456723E-02 -7.257131E-01
       474 -1.312350E-01 -5.211541E-02 -7.258480E-01
       475 -1.404740E-01  1.303051E-04 -7.253558E-01
       476 -1.415094E-01 -2.545916E-03 -7.255838E-01
       477 -1.586278E-01 -1.392995E-03 -5.215767E-01
       478 -1.588918E-01 -2.469602E-03 -5.245232E-01
       479 -1.662543E-01 -2.029494E-03 -2.943814E-01
       480 -1.663925E-01 -2.235042E-03 -2.956001E-01
       481 -5.673968E-02  1.456901E-01 -5.270080E-01
       482 -1.121802E-01 -1.188843E-01 -3.002792E-01
       483 -1.107907E-01 -1.180449E-01 -2.976510E-01
       484 -1.532583E-01 -6.027165E-02 -2.996877E-01
       485 -1.534778E-01 -6.043804E-02 -3.009719E-01
       486 -1.457179E-01 -5.818537E-02 -5.224645E-01
       487 -1.470168E-01 -5.726078E-02 -5.255116E-01
       488 -1.087130E-01 -1.123781E-01 -5.245100E-01
       489 -1.089465E-01 -1.114232E-01 -5.232343E-01
       490 -5.780959E-02  1.511121E-01 -3.051419E-01
       491 -5.827709E-02  1.513665E-01 -3.041310E-01
       492 -5.237740E-02  1.298845E-01 -7.275779E-01
       493 -5.463382E-02  1.286186E-01 -7.265707E-01
       494 -2.478404E-03  1.401894E-01 -7.299084E-01
       495 -3.750202E-03  1.401221E-01 -7.328224E-01
       496  1.818044E-03  1.639022E-01 -3.025892E-01
       497  1.807209E-03  1.634802E-01 -3.015702E-01
       498 -1.316960E-01  5.499486E-02 -7.280375E-01
       499 -1.303756E-01  5.296135E-02 -7.291849E-01
       500 -1.457899E-01  6.077317E-02 -5.221087E-01
       501 -1.471722E-01  5.933835E-02 -5.236883E-01
       502 -1.521616E-01  6.349683E-02 -2.953017E-01
       503 -1.519180E-01  6.363449E-02 -2.954015E-01
       504 -1.005236E-01  9.681257E-02 -7.281503E-01
       505 -1.030018E-01  9.486078E-02 -7.294648E-01
       506 -1.139305E-01  1.080591E-01 -5.227392E-01
       507 -1.149467E-01  1.079345E-01 -5.287777E-01
       508 -1.198052E-01  1.121038E-01 -2.993206E-01
       509 -1.191866E-01  1.115767E-01 -3.019214E-01
       510 -5.742631E-02  1.450862E-01 -5.261791E-01
       511 -1.308983E-03  1.568630E-01 -5.254517E-01
       512  5.109267E-02  1.298568E-01 -7.266899E-01
       513  4.858628E-02  1.305866E-01 -7.300916E-01
       514  6.129884E-02  1.510491E-01 -2.995389E-01
       515  6.151366E-02  1.513060E-01 -2.995149E-01
       516 -2.037772E-03 -1.557175E-01 -5.267741E-01
       517 -3.417700E-03 -1.612720E-01 -3.042278E-01
       518 -2.978209E-03 -1.392008E-01 -7.259150E-01
       519 -5.898892E-03 -1.389497E-01 -7.292107E-01
       520 -4.218061E-03 -1.627440E-01 -3.067987E-01
       521  5.399187E-02 -1.276550E-01 -7.289819E-01
       522  5.169757E-02 -1.281194E-01 -7.276308E-01
       523  6.099948E-02 -1.510276E-01 -3.099630E-01
       524  6.085020E-02 -1.504495E-01 -3.106864E-01
       525 -1.411615E-03 -1.556168E-01 -5.270848E-01
       526  2.308590E-04  1.573124E-01 -5.282550E-01
       527  9.700130E-02  1.000778E-01 -7.290374E-01
       528  9.507798E-02  1.020969E-01 -7.319310E-01
       529  9.860992E-02 -9.608198E-02 -7.296657E-01
       530  9.650054E-02 -9.731220E-02 -7.285787E-01
       531  1.084916E-01  1.129388E-01 -5.259541E-01
       532  1.076271E-01  1.139232E-01 -5.304508E-01
       533  1.456024E-01  5.730908E-02 -5.271937E-01
       534  1.450192E-01  5.808053E-02 -5.273311E-01
       535  1.638484E-01  5.846653E-04 -2.980219E-01
       536  1.636831E-01  2.060222E-04 -2.984330E-01
       537  1.488392E-01 -6.234563E-02 -3.026497E-01
       538  1.506719E-01 -6.337731E-02 -3.028437E-01
       539  1.173578E-01 -1.142245E-01 -3.076280E-01
       540  1.172875E-01 -1.146934E-01 -3.074136E-01
       541  1.563020E-01 -2.386565E-03 -5.255551E-01
       542  1.563790E-01 -3.206513E-03 -5.298302E-01
       543  1.142318E-01  1.176094E-01 -3.013698E-01
       544  1.138450E-01  1.173818E-01 -3.028299E-01
       545  1.512845E-01  6.183772E-02 -3.002583E-01
       546  1.518597E-01  6.237307E-02 -3.004406E-01
       547 -9.804571E-02 -2.432102E-03 -1.767439E-01
       548 -9.876153E-02 -2.048206E-03 -1.781314E-01
       549 -3.138496E-02 -2.814283E-03 -2.959307E-01
       550 -9.607184E-02 -3.066670E-04 -4.140218E-01
       551 -9.074232E-02 -1.639519E-04 -6.312800E-01
       552 -2.411321E-02 -3.601337E-03 -7.332047E-01
       553 -8.328782E-02 -1.706926E-02 -8.175512E-01
       554 -8.366140E-02  1.406985E-02 -8.173836E-01
       555 -2.475998E-02  3.297785E-03 -7.314761E-01
       556 -9.022307E-02 -1.026825E-04 -6.322362E-01
       557 -9.665966E-02 -3.046907E-05 -4.151836E-01
       558 -3.123988E-02  6.342605E-05 -2.951995E-01
       559 -9.144993E-02  2.428183E-05 -6.327746E-01
       560 -9.126643E-02 -6.587256E-04 -6.304970E-01
       561 -9.622750E-02  3.348896E-04 -4.151507E-01
       562 -9.582602E-02 -7.426552E-04 -4.141755E-01
       563 -2.904612E-02  2.496324E-03 -5.268320E-01
       564 -2.872018E-02 -3.702692E-03 -5.271010E-01