
 displacements (vx,vy,vz) for set NALL and time  0.1000000E+01

         1  1.479813E-04  2.059708E-05 -5.031901E-03
         2  9.399197E-04 -1.028688E-04 -5.050750E-03
         3  9.446012E-04 -1.322023E-04 -5.169916E-03
         4 -4.156357E-04 -1.753767E-05 -8.169132E-03
         5  2.663720E-04  5.434543E-06 -7.913607E-03
         6 -4.184741E-04 -4.071550E-05 -8.223614E-03
         7 -1.375662E-03 -1.807293E-05 -5.420904E-03
         8 -4.717806E-04  1.102681E-05 -8.185297E-03
         9 -1.386107E-03 -7.134984E-05 -5.486572E-03
        10 -7.755797E-05 -3.127134E-05 -8.019672E-03
        11  1.489522E-04 -5.998605E-05 -5.024370E-03
        12  3.037898E-04 -4.222678E-05 -7.991759E-03
        13 -5.271140E-04  1.105110E-05 -5.441644E-03
        14 -4.775033E-05  2.757891E-05 -8.068234E-03
        15 -4.947868E-04 -5.306817E-05 -8.257595E-03
        16 -2.218012E-04 -1.482410E-05 -8.309186E-03
        17  2.683878E-04 -7.064028E-05 -7.998931E-03
        18 -2.682015E-04  7.050204E-05 -8.234570E-03
        19  2.340682E-04  1.593703E-05 -7.941075E-03
        20  1.585371E-04 -7.399671E-05 -5.009457E-03
        21 -1.390931E-04 -7.812056E-04 -7.756651E-03
        22 -1.044675E-03 -8.467145E-04 -4.940046E-03
        23 -1.276732E-04 -7.828599E-04 -8.014068E-03
        24 -2.550385E-04 -7.175890E-04 -7.401604E-03
        25  5.447295E-04 -5.494006E-04 -7.060022E-03
        26  4.528613E-04 -6.082765E-04 -7.836900E-03
        27 -1.727776E-04 -6.768115E-04 -7.220739E-03
        28 -3.963901E-04 -3.067901E-04 -4.889865E-03
        29 -1.082863E-03 -8.677960E-04 -5.121093E-03
        30  1.098444E-03 -4.413102E-04 -4.413595E-03
        31  1.542218E-05 -2.162140E-04 -7.127545E-03
        32  1.150045E-03 -4.548809E-04 -5.021018E-03
        33  4.924337E-04 -6.099079E-04 -7.586462E-03
        34 -8.572137E-06 -1.648451E-04 -7.646644E-03
        35  5.001535E-04 -5.521093E-04 -6.824836E-03
        36 -1.957425E-04 -2.451179E-04 -7.853106E-03
        37 -1.005172E-04 -3.046569E-04 -7.244117E-03
        38 -1.641721E-04 -2.968686E-04 -7.478891E-03
        39  4.812344E-04 -9.550713E-04 -5.438999E-03
        40  4.868551E-04 -9.946838E-04 -6.149579E-03
        41  5.156936E-04 -9.823697E-04 -6.509051E-03
        42 -2.047751E-04 -1.185566E-03 -4.066530E-03
        43 -1.393930E-04 -3.969398E-04 -3.648776E-03
        44 -1.824638E-04 -1.134738E-03 -3.653081E-03
        45  7.484950E-05 -3.331411E-04 -5.501207E-03
        46  1.879335E-04 -2.565021E-04 -5.194736E-03
        47  1.446571E-03 -5.655445E-04 -3.102609E-03
        48  1.485785E-03 -5.724953E-04 -4.229091E-03
        49  1.029304E-03 -8.135420E-04 -5.994930E-03
        50  4.118018E-05 -3.479931E-04 -6.187700E-03
        51  1.007303E-03 -8.297951E-04 -6.491087E-03
        52  9.287944E-04 -7.377063E-04 -4.687825E-03
        53  9.959381E-04 -6.955072E-04 -5.114210E-03
        54  5.174806E-04 -9.199817E-04 -5.101867E-03
        55  7.424926E-05 -3.044174E-04 -6.443699E-03
        56  1.175012E-04 -2.240357E-04 -6.554849E-03
        57  1.031883E-04 -3.374954E-04 -5.126226E-03
        58  2.209932E-04 -2.380524E-04 -4.688701E-03
        59  1.141293E-03 -6.325380E-04 -2.284299E-03
        60  1.127533E-03 -7.090586E-04 -3.620627E-03
        61  1.131689E-03 -6.397985E-04 -2.741224E-03
        62  1.509370E-03 -5.318948E-04 -3.631956E-03
        63  1.930939E-03 -4.355780E-04 -2.787997E-03
        64  1.918519E-03 -4.305607E-04 -1.301428E-03
        65  5.239700E-04 -8.231735E-04 -1.860973E-03
        66  2.958380E-04 -1.812954E-04 -2.773517E-03
        67  1.310460E-04 -2.456279E-04 -1.941070E-03
        68  1.490781E-03 -5.118206E-04 -2.494860E-03
        69  3.702284E-04 -7.668930E-05 -1.141690E-03
        70  3.124299E-04 -1.125845E-04 -2.874922E-03
        71  5.628091E-04 -8.404887E-04 -2.381390E-03
        72  3.103167E-04 -1.884759E-04 -3.673298E-03
        73  1.141337E-03 -7.028737E-04 -4.086947E-03
        74  1.487731E-03 -5.660822E-04 -4.212187E-03
        75  1.468433E-03 -5.012682E-04 -1.926646E-03
        76  1.468388E-03  5.756320E-06  3.263666E-04
        77  9.644051E-04 -4.865809E-05 -4.020365E-04
        78  1.662596E-03 -1.717556E-06  4.584190E-04
        79  1.448928E-03 -3.247467E-05 -6.490897E-04
        80  1.001265E-03 -3.266313E-05  1.610526E-04
        81  3.836650E-04  1.791575E-05  7.918186E-04
        82  3.966396E-04 -6.579230E-06  4.590842E-04
        83  2.131285E-03 -1.819970E-05  6.849173E-04
        84  2.131708E-03  8.019030E-06 -9.669988E-04
        85  2.787065E-04 -5.666026E-05 -3.598055E-04
        86  3.857668E-04 -4.256327E-05 -6.587095E-04
        87  1.672651E-03 -2.061311E-05 -7.774375E-04
        88  3.941893E-04 -2.398812E-05 -7.838301E-04
        89  3.960765E-04 -7.438356E-05 -1.436408E-03
        90  3.876313E-04  1.607736E-05  1.109749E-03
        91  3.692575E-04 -9.387597E-05 -1.094223E-03
        92  3.981783E-04  1.000820E-05  3.114275E-04
        93  1.656204E-03 -3.074100E-05 -1.376011E-03
        94  1.465345E-03 -4.380025E-05 -1.162152E-03
        95  4.288001E-04  1.993529E-05  7.419976E-04
        96  1.487322E-03  1.716486E-05  8.114162E-04
        97  1.648937E-03  7.070305E-06  1.057595E-03
        98  2.016653E-03  4.481688E-04  9.776239E-04
        99  2.037569E-03  4.277279E-04  2.554005E-03
       100  1.506862E-03  5.125675E-04  2.203263E-03
       101  1.173288E-03  6.069292E-04  2.008482E-03
       102  1.548900E-03  5.195126E-04  3.399901E-03
       103  1.524529E-03  5.588835E-04  3.996021E-03
       104  1.136468E-03  6.688642E-04  3.352471E-03
       105  1.153801E-03  6.971545E-04  3.794443E-03
       106  1.475175E-04  2.239637E-04  1.706054E-03
       107  5.486880E-04  7.398040E-04  1.675067E-03
       108  5.662758E-04  7.011212E-04  2.107067E-03
       109  3.363447E-04  9.800898E-05  2.593997E-03
       110  3.176205E-04  1.583207E-04  3.414918E-03
       111  3.565042E-04  1.288140E-04  2.244146E-03
       112  1.154983E-03  6.310139E-04  2.461823E-03
       113  3.113130E-04  2.216451E-04  2.499480E-03
       114  1.485350E-03  4.969965E-04  1.625044E-03
       115  3.024396E-04  2.234050E-04  3.369032E-03
       116  2.844030E-04  1.916058E-04  4.036880E-03
       117  1.608866E-03  6.092096E-04  3.977260E-03
       118  9.803082E-04  7.218812E-04  4.888958E-03
       119 -1.901877E-04  1.133492E-03  3.407809E-03
       120  3.024602E-05  3.368769E-04  5.910968E-03
       121 -1.549612E-04  1.199117E-03  3.868832E-03
       122  4.991375E-04  1.005345E-03  5.800173E-03
       123  1.013882E-03  7.474598E-04  5.827099E-03
       124  1.549358E-03  6.315436E-04  2.800898E-03
       125  4.305145E-04  9.254682E-04  5.074959E-03
       126  1.069017E-04  3.369483E-04  5.169925E-03
       127  2.081969E-04  2.186511E-04  4.972040E-03
       128  1.307844E-04  2.080716E-04  6.354856E-03
       129  9.498263E-04  8.031905E-04  6.288953E-03
       130  4.907461E-04  8.880799E-04  4.772753E-03
       131  1.828298E-04  3.162681E-04  4.836097E-03
       132  5.527447E-04  9.638846E-04  6.159597E-03
       133  9.588544E-04  7.229721E-04  4.456662E-03
       134  2.220050E-04  9.521136E-05  4.037942E-03
       135 -1.027930E-03  8.241212E-04  4.886703E-03
       136 -1.857208E-04  7.187116E-04  7.071823E-03
       137  5.407981E-04  5.255827E-04  6.784114E-03
       138  4.367770E-04  5.793177E-04  7.569327E-03
       139 -4.387777E-05  7.265353E-04  7.779339E-03
       140  1.166231E-03  3.922655E-04  4.789412E-03
       141 -3.977910E-04  3.367857E-04  4.853006E-03
       142  1.146568E-03  3.713240E-04  4.179590E-03
       143 -1.066574E-03  7.946726E-04  4.726806E-03
       144  5.914324E-05  1.784556E-04  6.899931E-03
       145  4.991226E-04  5.704929E-04  7.326691E-03
       146  2.313368E-05  1.163815E-04  7.418856E-03
       147 -1.173917E-04  6.912897E-04  6.881437E-03
       148 -1.224854E-04  2.614416E-04  7.183989E-03
       149 -8.773902E-05  1.872715E-04  7.813006E-03
       150 -9.231060E-05  7.631843E-04  7.533236E-03
       151  4.987842E-04  5.306349E-04  6.545844E-03
       152  2.880631E-04 -2.841421E-05  7.682389E-03
       153 -3.937954E-04 -7.919214E-05  7.978705E-03
       154  2.688370E-04 -4.794178E-05  7.692442E-03
       155  3.276441E-04  1.828524E-05  7.729169E-03
       156 -4.383224E-04  7.870870E-06  8.010967E-03
       157  2.831289E-04  3.022686E-05  7.755528E-03
       158  9.859283E-04 -4.083394E-06  4.893449E-03
       159 -1.282929E-03 -1.598928E-05  5.350782E-03
       160 -1.362073E-03  4.581257E-05  5.404114E-03
       161  9.604556E-04 -3.503502E-05  4.931486E-03
       162 -4.835315E-05  2.755781E-05  7.780589E-03
       163 -3.325720E-04 -5.959051E-05  8.059381E-03
       164 -2.131951E-04 -4.128365E-05  8.059954E-03
       165 -3.947104E-04  4.063887E-05  8.023910E-03
       166 -3.206608E-05 -8.309295E-05  7.734567E-03
       167  2.048219E-04 -7.259056E-05  4.799866E-03
       168  1.132733E-03 -3.989078E-04  4.831633E-03
       169  5.311354E-04 -4.671979E-04  6.870558E-03
       170 -1.009901E-04 -7.224619E-04  7.625164E-03
       171 -2.149813E-04 -6.581585E-04  7.245279E-03
       172 -7.038049E-05 -7.158488E-04  7.864170E-03
       173 -1.101643E-03 -7.018761E-04  4.937046E-03
       174 -1.121189E-03 -6.840693E-04  4.879404E-03
       175 -1.365772E-04 -2.594611E-04  7.308592E-03
       176  1.140555E-03 -3.632512E-04  4.237841E-03
       177 -7.325288E-06 -1.470084E-04  7.459681E-03
       178 -1.602648E-04 -2.172159E-04  7.723503E-03
       179  5.050305E-04 -5.402353E-04  7.318210E-03
       180 -6.042793E-06 -1.247768E-04  7.671266E-03
       181  5.114745E-04 -4.662828E-04  6.652552E-03
       182 -1.679551E-04 -6.155522E-04  7.070799E-03
       183  3.617199E-04 -5.608772E-04  7.608601E-03
       184  1.534344E-03 -5.017354E-04  2.901457E-03
       185  9.841735E-04 -7.027612E-04  5.965929E-03
       186  9.569327E-04 -7.196800E-04  6.415954E-03
       187  4.737443E-04 -9.179153E-04  5.381724E-03
       188 -1.327475E-04 -4.097524E-04  3.698031E-03
       189  7.492862E-05 -3.527984E-04  5.470966E-03
       190 -2.226363E-04 -1.120423E-03  3.703284E-03
       191  9.704043E-04 -6.520884E-04  5.132988E-03
       192  1.976754E-04 -2.592244E-04  5.171360E-03
       193  1.412327E-04 -2.218233E-04  6.076679E-03
       194  1.536420E-03 -5.208027E-04  4.021893E-03
       195  4.638179E-04 -9.592439E-04  6.082489E-03
       196  4.178840E-05 -3.173368E-04  6.173160E-03
       197 -1.670728E-04 -1.123496E-03  4.103806E-03
       198  2.384356E-04 -2.302023E-04  4.696887E-03
       199  7.402866E-07 -3.317122E-04  6.400569E-03
       200  5.313642E-04 -9.126987E-04  6.416533E-03
       201  5.146709E-04 -8.814558E-04  5.072405E-03
       202  8.908721E-04 -6.932990E-04  4.733846E-03
       203  2.028703E-03 -4.091611E-04  2.604219E-03
       204  3.233920E-04 -1.191976E-04  2.676646E-03
       205  1.589538E-03 -5.615301E-04  4.192898E-03
       206  1.189992E-03 -7.323642E-04  3.580145E-03
       207  2.016464E-03 -4.097098E-04  1.055285E-03
       208  1.551338E-03 -5.369917E-04  2.381785E-03
       209  1.607674E-03 -5.292163E-04  3.611647E-03
       210  1.196207E-03 -6.802453E-04  2.663054E-03
       211  6.063639E-04 -8.769433E-04  1.758170E-03
       212  1.538018E-03 -5.210364E-04  1.797627E-03
       213  4.061246E-04 -6.758436E-05  9.250852E-04
       214  6.486652E-04 -9.067562E-04  2.335173E-03
       215  3.716637E-04 -1.398749E-04  1.774102E-03
       216  3.349287E-04 -2.376107E-04  2.714142E-03
       217  1.215863E-03 -6.471809E-04  2.204365E-03
       218  2.494755E-04 -2.840782E-04  4.005498E-03
       219  2.974063E-04 -2.082036E-04  4.276081E-03
       220  1.231782E-03 -6.905292E-04  4.060232E-03
       221  2.161706E-03  6.767289E-06  7.266398E-04
       222  2.169049E-03 -2.099540E-05 -9.041408E-04
       223  1.502801E-03  1.005215E-05 -5.549788E-04
       224  1.519161E-03  2.585494E-05 -1.077029E-03
       225  8.371013E-04  9.785982E-06 -2.109149E-04
       226  2.423554E-04  9.546180E-06 -1.665176E-04
       227  4.309486E-04 -1.663108E-08 -5.603305E-04
       228  1.801945E-03  3.143964E-06 -7.261399E-04
       229  8.655789E-04  6.896884E-06  2.587291E-04
       230  4.164167E-04 -3.472570E-05  6.035950E-04
       231  1.775388E-03 -3.830059E-05  1.241632E-03
       232  1.792772E-03 -2.111624E-05  5.775821E-04
       233  1.786065E-03  1.729415E-05 -1.378569E-03
       234  1.481774E-03 -4.581764E-06  4.489353E-04
       235  1.499444E-03 -3.732129E-05  9.613233E-04
       236  4.326300E-04 -9.059095E-06  4.461785E-04
       237  3.978482E-04  2.991855E-05 -1.425013E-03
       238  4.004163E-04  4.729029E-05 -1.111632E-03
       239  1.173187E-03  6.850741E-04 -4.109915E-03
       240  5.859997E-04  7.296755E-04 -2.379180E-03
       241  1.534157E-03  5.274233E-04 -4.229912E-03
       242  1.170300E-03  6.425628E-04 -2.732447E-03
       243  1.197948E-03  6.118825E-04 -2.280651E-03
       244  1.324572E-04  2.441475E-04 -1.978615E-03
       245  5.692667E-04  7.771595E-04 -1.939982E-03
       246  1.174216E-03  6.996095E-04 -3.651906E-03
       247  3.020155E-04  2.490766E-04 -3.677809E-03
       248  2.017882E-03  3.925371E-04 -2.806271E-03
       249  1.546270E-03  5.066071E-04 -3.643015E-03
       250  2.002642E-03  4.133509E-04 -1.248857E-03
       251  3.723606E-04  1.285410E-04 -2.528825E-03
       252  1.488435E-03  5.121291E-04 -1.923539E-03
       253  1.501544E-03  4.884645E-04 -2.481512E-03
       254  3.252129E-04  1.881084E-04 -2.367273E-03
       255  3.072582E-04  2.127383E-04 -2.777077E-03
       256  3.662460E-04  8.823729E-05 -1.908317E-03
       257  9.778509E-04  7.126819E-04 -5.130125E-03
       258  1.550158E-03  5.907986E-04 -4.256660E-03
       259  9.939774E-04  7.360407E-04 -6.053002E-03
       260  4.664364E-04  9.377327E-04 -6.025206E-03
       261 -1.909473E-04  1.074770E-03 -3.612156E-03
       262 -1.519503E-04  1.104181E-03 -4.062807E-03
       263  1.537390E-03  5.799292E-04 -3.063545E-03
       264  1.895642E-04  2.281427E-04 -5.209146E-03
       265  4.226625E-04  9.101038E-04 -5.396039E-03
       266  2.555740E-04  2.076745E-04 -4.676949E-03
       267  9.093801E-04  7.442276E-04 -4.719168E-03
       268  9.635475E-04  7.683673E-04 -6.495359E-03
       269  4.641128E-04  8.715006E-04 -5.078195E-03
       270  4.794304E-04  9.448095E-04 -6.384362E-03
       271  1.334728E-04  1.960503E-04 -6.548120E-03
       272  1.094813E-03  3.969033E-04 -5.043158E-03
       273  1.066430E-03  3.645921E-04 -4.422885E-03
       274  4.795277E-04  5.756978E-04 -7.485107E-03
       275 -2.523707E-04  6.778210E-04 -7.265353E-03
       276 -1.099693E-03  7.085265E-04 -4.922628E-03
       277 -1.120728E-03  6.914714E-04 -4.868023E-03
       278 -1.787072E-04  7.225920E-04 -7.659107E-03
       279  5.384735E-04  4.799272E-04 -7.028931E-03
       280  5.352815E-05  1.964801E-04 -7.085097E-03
       281  4.987980E-04  4.694982E-04 -6.823556E-03
       282 -1.681187E-04  2.522781E-04 -7.354321E-03
       283 -1.357972E-04  7.031504E-04 -7.918266E-03
       284 -2.041212E-04  6.422673E-04 -7.074499E-03
       285 -1.625926E-04  1.918238E-04 -7.915646E-03
       286  4.586508E-04  5.800250E-04 -7.783270E-03
       287  0.000000E+00  0.000000E+00  0.000000E+00
       288  0.000000E+00  0.000000E+00  0.000000E+00
       289  0.000000E+00  0.000000E+00  0.000000E+00
       290  0.000000E+00  0.000000E+00  0.000000E+00
       291  0.000000E+00  0.000000E+00  0.000000E+00
       292  0.000000E+00  0.000000E+00  0.000000E+00
       293  0.000000E+00  0.000000E+00  0.000000E+00
       294  0.000000E+00  0.000000E+00  0.000000E+00
       295  0.000000E+00  0.000000E+00  0.000000E+00
       296  0.000000E+00  0.000000E+00  0.000000E+00
       297  0.000000E+00  0.000000E+00  0.000000E+00
       298  0.000000E+00  0.000000E+00  0.000000E+00
       299  0.000000E+00  0.000000E+00  0.000000E+00
       300  0.000000E+00  0.000000E+00  0.000000E+00
       301  0.000000E+00  0.000000E+00  0.000000E+00
       302  0.000000E+00  0.000000E+00  0.000000E+00
       303  0.000000E+00  0.000000E+00  0.000000E+00
       304  0.000000E+00  0.000000E+00  0.000000E+00
       305  0.000000E+00  0.000000E+00  0.000000E+00
       306  0.000000E+00  0.000000E+00  0.000000E+00
       307  0.000000E+00  0.000000E+00  0.000000E+00
       308  0.000000E+00  0.000000E+00  0.000000E+00
       309  0.000000E+00  0.000000E+00  0.000000E+00
       310  0.000000E+00  0.000000E+00  0.000000E+00
       311  0.000000E+00  0.000000E+00  0.000000E+00
       312  0.000000E+00  0.000000E+00  0.000000E+00
       313  0.000000E+00  0.000000E+00  0.000000E+00
       314  0.000000E+00  0.000000E+00  0.000000E+00
       315  0.000000E+00  0.000000E+00  0.000000E+00
       316  0.000000E+00  0.000000E+00  0.000000E+00
       317  0.000000E+00  0.000000E+00  0.000000E+00
       318  0.000000E+00  0.000000E+00  0.000000E+00
       319  0.000000E+00  0.000000E+00  0.000000E+00
       320  0.000000E+00  0.000000E+00  0.000000E+00
       321  0.000000E+00  0.000000E+00  0.000000E+00
       322  0.000000E+00  0.000000E+00  0.000000E+00
       323  0.000000E+00  0.000000E+00  0.000000E+00
       324 -1.269631E-04  2.242932E-04  7.605628E-03
       325 -1.897106E-04  6.782356E-05  8.181961E-03
       326 -5.177968E-04 -2.900546E-05  5.377877E-03
       327 -2.474035E-04  2.464265E-05  8.138075E-03
       328 -4.315358E-04  3.398633E-04  4.702404E-03
       329 -4.637687E-04 -2.174332E-04  4.932561E-03
       330 -2.120712E-04 -2.208642E-04  7.926584E-03
       331 -2.368373E-04 -5.168218E-05  8.002169E-03
       332  0.000000E+00  0.000000E+00  0.000000E+00
       333 -5.221890E-04 -3.333658E-05  5.384732E-03
       334  0.000000E+00  0.000000E+00  0.000000E+00
       335 -1.652065E-04  3.920990E-04  3.786729E-03
       336  0.000000E+00  0.000000E+00  0.000000E+00
       337 -2.152457E-05  5.542485E-05  7.694290E-03
       338  7.669302E-06  9.007999E-05  7.633006E-03
       339 -1.559837E-04 -2.847848E-04  7.122943E-03
       340 -1.589864E-04 -4.330259E-04  4.072108E-03
       341  0.000000E+00  0.000000E+00  0.000000E+00
       342 -3.557644E-04 -2.485458E-04  4.838399E-03
       343  9.361138E-05  1.962404E-04  6.588944E-03
       344 -4.033258E-06  3.322662E-04  6.159850E-03
       345 -1.049250E-04  2.818773E-04  6.949019E-03
       346  3.048493E-04 -2.490717E-04  3.651472E-03
       347  8.484626E-05 -1.854521E-04  6.723421E-03
       348  2.674940E-04  3.013218E-04  3.752184E-03
       349  2.316942E-04  2.128571E-04  4.453075E-03
       350  1.795500E-04  3.758261E-05  4.764169E-03
       351  2.391979E-04  9.912699E-05  4.001343E-03
       352  2.218820E-04 -1.278069E-04  4.049988E-03
       353  1.466782E-04  2.167896E-04  5.878900E-03
       354  4.121009E-04 -4.615816E-05  8.543266E-04
       355  3.967057E-04 -8.584840E-05  1.289109E-03
       356  3.693674E-04 -1.744908E-04  2.417372E-03
       357  3.167078E-04  1.121650E-04  2.651688E-03
       358  3.055379E-04 -1.298192E-04  2.739239E-03
       359  3.438465E-04 -1.893660E-04  3.646500E-03
       360  1.199634E-04 -1.968913E-04  6.472524E-03
       361  1.968616E-04 -1.279509E-04  4.098123E-03
       362  3.254874E-05 -1.740610E-04  6.972652E-03
       363  1.757222E-04  2.621500E-05  4.784990E-03
       364  2.022462E-04 -5.786243E-05  4.815533E-03
       365 -3.948039E-05 -4.444647E-05  7.755400E-03
       366  9.887137E-05 -3.321803E-04  5.149353E-03
       367  3.760752E-04  3.879362E-05  8.564336E-04
       368  3.771590E-04 -5.535480E-05 -1.070508E-03
       369  4.072265E-04  2.432223E-05 -1.042401E-03
       370  4.106491E-04  3.549104E-06 -7.319627E-04
       371  3.758457E-04 -1.238289E-04 -1.885104E-03
       372  3.557320E-04 -1.648947E-04 -2.520004E-03
       373  2.786807E-04 -2.675719E-04 -3.645096E-03
       374  2.777336E-04 -2.317336E-04 -4.030324E-03
       375  1.620713E-04  1.952198E-04 -6.109531E-03
       376  2.209754E-04 -1.375665E-04 -4.241312E-03
       377  2.071296E-04  9.629254E-05 -4.304299E-03
       378  2.244554E-04  9.966874E-05 -4.266492E-03
       379  2.925674E-04 -1.251962E-04 -2.934261E-03
       380  2.657876E-04  2.363271E-04 -4.096864E-03
       381  2.846714E-04 -1.994172E-04 -4.263025E-03
       382  8.011184E-05  3.226576E-04 -5.162897E-03
       383  1.086822E-04  2.530093E-04 -2.322905E-03
       384 -4.040636E-05  6.832165E-05 -7.968485E-03
       385  3.240157E-06  1.436266E-04 -7.581110E-03
       386  1.535328E-04  3.325094E-05 -5.010999E-03
       387  8.044985E-05  2.008522E-04 -6.807568E-03
       388 -1.382397E-04  2.700782E-04 -7.077883E-03
       389  5.263795E-05  3.149762E-04 -6.353417E-03
       390 -9.939392E-06  1.021092E-04 -7.852077E-03
       391 -2.318887E-04 -5.564707E-05 -8.235615E-03
       392 -2.457298E-04 -2.250824E-04 -8.024482E-03
       393  7.857560E-05 -2.801954E-04 -2.318682E-03
       394  0.000000E+00  0.000000E+00  0.000000E+00
       395  0.000000E+00  0.000000E+00  0.000000E+00
       396  3.148889E-04 -2.045988E-04 -2.366795E-03
       397  0.000000E+00  0.000000E+00  0.000000E+00
       398  3.072160E-04  3.507805E-05  1.018325E-04
       399  3.374735E-04  1.984814E-04  2.067800E-03
       400  3.684245E-04  8.307712E-05  1.600584E-03
       401  0.000000E+00  0.000000E+00  0.000000E+00
       402  0.000000E+00  0.000000E+00  0.000000E+00
       403  1.027017E-04  2.789618E-04  2.083510E-03
       404 -1.173455E-04  3.473527E-04  3.451904E-03
       405  0.000000E+00  0.000000E+00  0.000000E+00
       406  0.000000E+00  0.000000E+00  0.000000E+00
       407 -1.620139E-04 -4.052297E-04 -3.963824E-03
       408 -4.482247E-04 -3.120388E-04 -5.133353E-03
       409  0.000000E+00  0.000000E+00  0.000000E+00
       410  0.000000E+00  0.000000E+00  0.000000E+00
       411  0.000000E+00  0.000000E+00  0.000000E+00
       412  0.000000E+00  0.000000E+00  0.000000E+00
       413  0.000000E+00  0.000000E+00  0.000000E+00
       414 -5.681423E-04 -4.983996E-06 -5.459580E-03
       415 -4.267941E-04  2.473928E-04 -4.927966E-03
       416 -3.632658E-04  2.753297E-04 -4.853757E-03
       417 -2.995831E-04  3.155142E-05 -8.314065E-03
       418 -1.595462E-04  2.227862E-04 -7.698586E-03
       419 -1.568187E-04  3.187669E-04 -4.005209E-03
       420 -1.257899E-04  3.469315E-04 -3.691670E-03
       421  5.319440E-05  3.064567E-04 -6.094847E-03
       422  4.447807E-05  3.282440E-04 -5.453483E-03
       423  4.049259E-04  1.451410E-05 -9.921629E-04
       424  0.000000E+00  0.000000E+00  0.000000E+00
       425  1.340055E-04 -2.997414E-04  1.784426E-03
       426  2.122408E-04 -2.704719E-05  1.960295E-04
       427  4.266964E-04 -6.092651E-05  9.034351E-04
       428  3.516466E-04 -2.293099E-04  2.270737E-03
       429  8.666475E-05 -3.172138E-04  2.257093E-03
       430 -2.730858E-05 -7.980815E-05 -7.994525E-03
       431  5.514376E-06 -1.195961E-04 -7.891226E-03
       432  5.713876E-05 -2.285955E-04 -6.791809E-03
       433  1.477228E-04 -2.298630E-04 -6.119203E-03
       434  2.019221E-04 -1.367777E-04 -4.285215E-03
       435  3.093452E-04  9.857946E-05 -2.929005E-03
       436  2.850780E-04  1.761891E-04 -4.302812E-03
       437  3.202806E-04  1.625112E-04 -3.681965E-03
       438  3.313084E-04  8.431730E-05 -2.870817E-03
       439  0.000000E+00  0.000000E+00  0.000000E+00
       440  0.000000E+00  0.000000E+00  0.000000E+00
       441  0.000000E+00  0.000000E+00  0.000000E+00
       442  0.000000E+00  0.000000E+00  0.000000E+00
       443  0.000000E+00  0.000000E+00  0.000000E+00
       444  0.000000E+00  0.000000E+00  0.000000E+00
       445  0.000000E+00  0.000000E+00  0.000000E+00
       446  0.000000E+00  0.000000E+00  0.000000E+00
       447  0.000000E+00  0.000000E+00  0.000000E+00
       448  0.000000E+00  0.000000E+00  0.000000E+00
       449  7.355323E-04 -7.235677E-05 -6.672803E-03
       450  7.917449E-04 -1.232402E-04 -6.810515E-03
       451 -6.247399E-05  4.651708E-05 -8.414503E-03
       452 -6.837318E-05 -4.571520E-05 -8.463911E-03
       453 -1.128788E-03 -5.054538E-05 -7.124313E-03
       454 -1.115614E-03 -1.023829E-04 -7.225428E-03
       455 -4.509062E-04 -1.886462E-05 -7.244907E-03
       456 -6.177947E-06 -3.951897E-05 -6.762219E-03
       457 -7.451540E-06  2.744363E-05 -6.840668E-03
       458 -4.248052E-04  2.816790E-05 -7.266202E-03
       459 -1.420756E-04  9.800666E-05 -8.483172E-03
       460 -1.409299E-04 -7.723340E-05 -8.535178E-03
       461 -7.472421E-04 -8.163775E-04 -6.692678E-03
       462 -8.442883E-04 -7.690351E-04 -6.451770E-03
       463  1.873065E-04 -7.041838E-04 -8.127203E-03
       464  1.837020E-04 -6.001606E-04 -7.218438E-03
       465  9.593743E-04 -4.456388E-04 -6.472220E-03
       466  9.354564E-04 -4.156566E-04 -5.923572E-03
       467 -3.294162E-04 -2.842558E-04 -6.505661E-03
       468  6.244913E-05 -1.737512E-04 -5.939862E-03
       469  4.160042E-05 -1.229028E-04 -6.544574E-03
       470 -3.520523E-04 -2.591937E-04 -6.791868E-03
       471 -1.259356E-04 -1.896325E-04 -8.242310E-03
       472 -2.022822E-05 -2.688653E-04 -7.234733E-03
       473  2.524749E-05 -1.146395E-03 -5.251331E-03
       474 -1.610984E-06 -1.111856E-03 -4.754314E-03
       475  7.631521E-04 -8.646599E-04 -6.638240E-03
       476  7.448223E-04 -7.980266E-04 -5.095695E-03
       477  1.292010E-03 -6.285087E-04 -5.240585E-03
       478  1.295010E-03 -5.845396E-04 -4.247992E-03
       479 -7.151662E-06 -3.736516E-04 -4.801174E-03
       480  2.286829E-04 -2.035472E-04 -4.262591E-03
       481  1.480144E-04 -1.795943E-04 -5.352849E-03
       482 -6.958810E-05 -3.900514E-04 -5.325728E-03
       483  5.102229E-05 -2.736530E-04 -6.714410E-03
       484  1.632842E-04 -3.143873E-04 -5.121480E-03
       485  1.336115E-03 -5.587086E-04 -2.191771E-03
       486  7.652548E-04 -7.890218E-04 -3.083527E-03
       487  7.666576E-04 -7.675396E-04 -2.443041E-03
       488  1.814982E-03 -4.665555E-04 -3.341287E-03
       489  1.797138E-03 -4.546577E-04 -1.936559E-03
       490  1.323982E-03 -6.131386E-04 -4.260119E-03
       491  2.243487E-04 -2.522852E-04 -2.486517E-03
       492  3.755570E-04 -1.467803E-04 -1.946590E-03
       493  3.135822E-04 -1.737758E-04 -3.422182E-03
       494  2.127564E-04 -2.797891E-04 -3.105343E-03
       495  2.783410E-04 -2.336917E-04 -4.270334E-03
       496  3.183371E-04 -1.733984E-04 -2.219268E-03
       497  1.548641E-03  2.199027E-05  9.395073E-04
       498  1.146302E-03  1.873780E-06 -5.351901E-04
       499  1.144443E-03 -3.305675E-05  2.367186E-04
       500  1.978886E-03  9.446689E-06 -8.935791E-04
       501  1.986693E-03 -2.772920E-05  6.233421E-04
       502  1.554984E-03 -5.476859E-05 -1.275645E-03
       503  2.732722E-04  2.114077E-05  2.318483E-04
       504  4.000319E-04 -6.681333E-06  6.243386E-04
       505  3.890894E-04 -2.355861E-05 -9.317812E-04
       506  3.148075E-04 -3.271867E-05 -5.211055E-04
       507  3.573718E-04 -5.150685E-05 -1.276270E-03
       508  3.991962E-04  2.268305E-05  9.173065E-04
       509  1.358957E-03  5.655863E-04  1.891505E-03
       510  1.864349E-03  4.583354E-04  1.603539E-03
       511  1.896128E-03  4.350056E-04  3.131395E-03
       512  7.608918E-04  7.314067E-04  2.148304E-03
       513  7.615684E-04  7.258462E-04  2.803746E-03
       514  1.340049E-03  6.214355E-04  3.990407E-03
       515  1.854645E-04  2.147729E-04  2.838599E-03
       516  3.180783E-04  1.353645E-04  3.157638E-03
       517  3.667415E-04  1.113980E-04  1.623094E-03
       518  2.285809E-04  2.138731E-04  2.199499E-03
       519  3.849654E-04  1.779514E-04  1.936391E-03
       520  2.950751E-04  2.141026E-04  4.019228E-03
       521  6.105472E-05  1.099799E-03  4.527050E-03
       522  1.166038E-04  1.145589E-03  5.160682E-03
       523  7.447211E-04  8.316037E-04  4.804979E-03
       524  7.687766E-04  9.001297E-04  6.502761E-03
       525  1.350135E-03  6.089362E-04  3.964853E-03
       526  1.443623E-03  6.100584E-04  5.107854E-03
       527 -7.046139E-05  3.541625E-04  5.163190E-03
       528  1.976158E-04  1.472838E-04  5.104138E-03
       529  2.212838E-04  1.891793E-04  4.017623E-03
       530 -3.434911E-05  3.479143E-04  4.559452E-03
       531  1.584232E-04  2.709091E-04  4.871501E-03
       532  6.802375E-05  2.540611E-04  6.512965E-03
       533 -7.938785E-04  8.010607E-04  6.241281E-03
       534 -6.812083E-04  8.534788E-04  6.594882E-03
       535  2.127334E-04  6.261709E-04  6.959130E-03
       536  1.949774E-04  6.392928E-04  7.925993E-03
       537  1.013118E-03  3.997128E-04  5.674570E-03
       538  9.458521E-04  4.825363E-04  6.311153E-03
       539 -2.920586E-04  2.813681E-04  6.677811E-03
       540  5.260162E-05  1.009900E-04  6.352059E-03
       541  1.041770E-04  1.386892E-04  5.742932E-03
       542 -2.767161E-04  3.010614E-04  6.359524E-03
       543 -3.400214E-05  2.648935E-04  7.075397E-03
       544 -8.577289E-05  1.579038E-04  7.976301E-03
       545 -1.027583E-03 -7.954388E-05  7.084937E-03
       546 -1.066227E-03  5.111526E-06  7.124950E-03
       547 -2.947275E-05 -4.983900E-05  8.157046E-03
       548 -1.255573E-05  3.841693E-05  8.205101E-03
       549  7.845062E-04 -5.364865E-05  6.527218E-03
       550  7.884861E-04 -4.469137E-07  6.540565E-03
       551 -4.240370E-04 -5.921200E-05  7.127310E-03
       552  4.112452E-05 -4.618861E-05  6.575647E-03
       553 -2.058134E-06  6.522573E-06  6.605758E-03
       554 -3.521398E-04 -4.016413E-06  7.248802E-03
       555 -1.321688E-04  3.966506E-05  8.268317E-03
       556 -1.097510E-04 -8.447137E-05  8.227178E-03
       557  9.665063E-04 -3.868873E-04  5.704564E-03
       558  9.527388E-04 -4.279108E-04  6.313348E-03
       559  2.353707E-04 -5.952955E-04  7.120669E-03
       560  2.094595E-04 -6.329108E-04  8.019537E-03
       561 -8.568476E-04 -7.005119E-04  6.398354E-03
       562 -7.572585E-04 -7.484749E-04  6.635220E-03
       563 -2.490582E-04 -2.657462E-04  6.484802E-03
       564  1.003741E-04 -1.611518E-04  5.777713E-03