
 displacements (vx,vy,vz) for set NALL and time  0.1000000E+01

         1  6.094537E-03 -1.166890E-03 -6.384685E-02
         2  1.314081E-03 -8.125348E-04 -8.545424E-02
         3  1.140851E-03 -5.035347E-04 -8.512084E-02
         4 -2.971241E-03 -7.344892E-04 -8.882587E-02
         5 -1.021936E-02 -5.677989E-04 -7.281618E-02
         6 -3.955786E-03 -1.733850E-04 -7.162756E-02
         7  6.231515E-03 -1.277004E-03 -6.450375E-02
         8 -1.011157E-02 -8.977860E-04 -7.361372E-02
         9 -2.479448E-03  3.348458E-07 -8.963797E-02
        10 -2.861355E-03 -3.365421E-04 -8.560920E-02
        11  4.637152E-04 -8.557380E-04 -8.590204E-02
        12 -2.845887E-03 -5.935462E-04 -8.519475E-02
        13 -2.289391E-03  2.177133E-04 -8.977716E-02
        14 -1.738390E-03 -5.575881E-04 -8.859104E-02
        15 -2.956306E-03 -3.335723E-04 -8.855541E-02
        16 -2.407454E-03 -2.936791E-04 -8.921555E-02
        17 -1.878696E-03 -7.406344E-04 -8.930347E-02
        18 -2.486355E-03 -4.261366E-04 -8.902578E-02
        19  3.418266E-04 -4.662545E-04 -8.519554E-02
        20  7.943975E-03 -5.855290E-03 -5.630817E-02
        21 -3.798611E-04 -7.655855E-03 -8.335234E-02
        22  5.711207E-04 -7.297257E-03 -8.591555E-02
        23  2.536209E-03 -6.921789E-03 -8.356867E-02
        24  3.458136E-03 -6.421685E-03 -7.603578E-02
        25  8.168895E-03 -5.731630E-03 -6.247167E-02
        26 -6.401912E-03 -9.212094E-03 -6.856334E-02
        27  3.462881E-03 -6.730284E-03 -8.092240E-02
        28 -2.008649E-03 -1.519322E-03 -8.406017E-02
        29 -2.330063E-04 -7.132233E-03 -7.901961E-02
        30 -6.876238E-03 -9.208314E-03 -6.428419E-02
        31 -2.034633E-03 -1.805013E-03 -7.979329E-02
        32 -2.096405E-03 -1.714200E-03 -7.656685E-02
        33  2.654911E-03 -6.667698E-03 -7.387042E-02
        34  5.384459E-04 -6.848682E-03 -7.699671E-02
        35 -2.495758E-03 -1.075560E-03 -8.367671E-02
        36 -1.602324E-03 -1.326323E-03 -5.167860E-02
        37  1.411266E-02 -8.673418E-03 -3.967393E-02
        38  7.820383E-04 -1.217907E-02 -4.912176E-02
        39  1.374253E-03 -1.191957E-02 -5.514477E-02
        40  6.580035E-03 -1.042110E-02 -5.914157E-02
        41  9.150050E-03 -8.929356E-03 -5.681433E-02
        42  6.736119E-03 -1.054723E-02 -6.729751E-02
        43  7.304290E-03 -1.007511E-02 -7.151041E-02
        44  8.783212E-03 -9.469567E-03 -6.970911E-02
        45  9.479059E-03 -9.048796E-03 -6.533496E-02
        46  8.655361E-03 -9.287140E-03 -5.275204E-02
        47  1.410017E-02 -8.811633E-03 -5.183003E-02
        48 -3.524087E-04 -2.386294E-03 -5.966981E-02
        49 -8.693915E-04 -1.186705E-03 -3.847969E-02
        50 -2.875266E-04 -2.309931E-03 -6.771465E-02
        51  7.110482E-03 -9.970423E-03 -5.529698E-02
        52  1.965908E-02 -6.622079E-03 -1.798865E-02
        53 -6.079534E-05 -9.101379E-04 -1.674241E-02
        54  1.539793E-02 -7.560460E-03 -2.403598E-02
        55  1.364748E-02 -8.162855E-03 -3.139344E-02
        56  1.561549E-02 -7.057199E-03 -2.962476E-02
        57  1.962486E-02 -6.638365E-03 -3.363959E-02
        58  1.561199E-02 -7.140010E-03 -4.082139E-02
        59  1.545359E-02 -7.386339E-03 -4.654809E-02
        60  9.170595E-03 -9.455326E-03 -2.650570E-02
        61  1.379363E-02 -8.257866E-03 -4.178312E-02
        62  9.507205E-03 -9.315191E-03 -3.428469E-02
        63  8.609642E-04 -1.680702E-03 -2.955947E-02
        64  8.137264E-04 -1.766273E-03 -4.121736E-02
        65  1.386157E-02 -7.854592E-03 -2.629766E-02
        66  1.329002E-03 -1.940690E-03 -3.192200E-02
        67  1.406389E-02 -7.827794E-03 -4.719752E-02
        68  1.037560E-03 -1.935677E-03 -4.673455E-02
        69  5.863143E-04 -1.804918E-03 -4.730193E-02
        70  1.048393E-03 -1.273798E-03 -2.342752E-02
        71  3.510086E-04  1.470301E-05  8.281504E-03
        72  2.332696E-02 -1.262255E-03  7.009424E-03
        73  1.875273E-02 -1.196884E-03  1.762382E-03
        74  1.288206E-02 -1.709338E-03 -1.215541E-03
        75  1.726257E-02 -1.377364E-03  3.065927E-04
        76  2.340544E-02 -1.205855E-03 -1.041824E-02
        77  1.885583E-02 -1.215796E-03 -1.079225E-02
        78  1.292454E-02 -1.432444E-03 -8.898967E-03
        79  1.747321E-02 -1.353434E-03 -1.123793E-02
        80  2.186450E-03 -2.956219E-04  3.596760E-05
        81  1.538070E-03 -6.667017E-04 -1.097455E-02
        82  1.866360E-02 -1.312463E-03  7.919568E-03
        83  1.751305E-03 -2.832961E-04  1.936200E-03
        84  1.754103E-02 -1.269153E-03 -1.702946E-02
        85  1.732734E-02 -1.348928E-03  5.945483E-03
        86  1.876954E-02 -1.277693E-03 -1.707791E-02
        87  1.124428E-02  7.412097E-03  1.599007E-02
        88  1.706365E-02  6.109144E-03  1.560203E-02
        89  1.549288E-02  6.546511E-03  2.119155E-02
        90  1.761501E-02  5.737377E-03  3.356926E-02
        91  2.195770E-02  5.536092E-03  3.241752E-02
        92  1.481235E-03  1.165806E-03  2.154106E-02
        93  2.194214E-02  5.495965E-03  1.531498E-02
        94  1.942793E-03  1.252464E-03  2.164136E-02
        95  1.127399E-02  7.294327E-03  2.358189E-02
        96  1.588743E-02  6.451075E-03  3.240130E-02
        97  1.721483E-02  5.764348E-03  2.154407E-02
        98  1.480998E-03  6.761300E-04  1.482680E-02
        99  1.747955E-02  5.938766E-03  3.975637E-02
       100  1.563018E-02  6.314479E-03  1.577550E-02
       101  2.056577E-03  9.414398E-04  1.651183E-02
       102  1.604221E-02  6.155872E-03  3.810470E-02
       103  1.728292E-03  1.339649E-03  3.732471E-02
       104  4.644173E-03  1.301367E-02  4.049523E-02
       105  1.049994E-02  1.087489E-02  4.702433E-02
       106  9.868600E-03  1.143210E-02  5.182128E-02
       107  1.230354E-02  1.010561E-02  6.200342E-02
       108  1.196780E-02  1.049835E-02  6.740243E-02
       109  1.028319E-02  1.091823E-02  6.649695E-02
       110  1.629381E-02  9.416781E-03  5.384751E-02
       111  1.233313E-02  9.946943E-03  5.137793E-02
       112  4.484310E-03  1.328821E-02  4.699521E-02
       113  1.629601E-02  9.205869E-03  3.979612E-02
       114  6.176303E-04  2.389332E-03  5.246855E-02
       115  1.197202E-02  1.030029E-02  4.629662E-02
       116  1.414170E-04  2.144464E-03  5.152691E-02
       117  2.806777E-04  1.937604E-03  4.585614E-02
       118 -3.657886E-04  2.201071E-03  6.790224E-02
       119  4.355867E-05  2.192633E-03  6.254075E-02
       120  9.904283E-03  1.160156E-02  6.153109E-02
       121  1.078831E-02  9.488791E-03  6.934622E-02
       122 -1.676630E-03  1.183854E-03  6.868585E-02
       123 -4.419862E-03  1.166753E-02  6.232484E-02
       124  5.505762E-03  9.322118E-03  7.593737E-02
       125  2.312808E-03  1.092475E-02  8.365797E-02
       126  3.037351E-03  1.051687E-02  8.736557E-02
       127  5.514965E-03  9.593018E-03  8.315434E-02
       128  1.075687E-02  9.432079E-03  5.892356E-02
       129 -1.521408E-03  2.181539E-03  7.646400E-02
       130 -4.580481E-03  1.189982E-02  6.628626E-02
       131 -1.735048E-03  1.877701E-03  8.373565E-02
       132  4.951054E-03  9.931742E-03  8.698890E-02
       133  3.144060E-03  1.021895E-02  7.381865E-02
       134 -1.053199E-03  2.270526E-03  7.764517E-02
       135  2.188587E-03  1.062432E-02  7.707886E-02
       136 -1.382373E-03  2.080773E-03  8.723283E-02
       137 -1.408349E-03  2.173691E-03  8.433340E-02
       138  4.830926E-03  9.662854E-03  7.252964E-02
       139 -1.066905E-03  2.181578E-03  7.223494E-02
       140 -2.095452E-03  1.653992E-03  8.736467E-02
       141  5.773619E-03  3.660316E-03  7.568538E-02
       142 -3.151805E-03  4.920522E-03  9.528559E-02
       143 -2.839113E-03  4.393244E-03  9.284944E-02
       144 -7.853057E-05  4.244165E-03  8.984728E-02
       145  9.070637E-04  4.295004E-03  9.362141E-02
       146 -1.025958E-02  5.565494E-03  7.531990E-02
       147 -9.889109E-03  5.812281E-03  7.788963E-02
       148  5.667502E-03  3.537229E-03  7.245425E-02
       149 -2.516108E-03  1.068988E-03  9.152657E-02
       150 -2.565386E-03  1.179700E-03  9.350539E-02
       151 -2.502674E-03  8.994077E-04  9.612883E-02
       152  9.000071E-04  3.936901E-03  9.108697E-02
       153  1.298102E-04  4.464090E-03  9.533516E-02
       154 -2.804435E-03  6.427741E-04  9.437580E-02
       155 -1.964957E-03  4.239471E-03  9.182172E-02
       156 -2.173618E-03  4.740195E-03  9.692512E-02
       157 -2.392319E-03 -8.078497E-05  7.507090E-02
       158  8.399533E-04 -2.536768E-03  9.250873E-02
       159  5.945391E-03 -2.427760E-03  7.548613E-02
       160 -2.140731E-03 -2.911850E-03  9.379456E-02
       161 -2.342635E-04 -2.942436E-03  9.570509E-02
       162 -1.028703E-02 -4.001745E-03  7.722726E-02
       163 -3.333464E-03 -2.981362E-03  9.443694E-02
       164 -1.016217E-02 -4.389815E-03  7.868128E-02
       165  8.082680E-04 -2.900247E-03  9.449045E-02
       166 -2.362703E-03 -4.801067E-04  9.690208E-02
       167 -3.769582E-03 -8.758044E-04  7.698254E-02
       168 -2.382410E-03 -8.188054E-04  9.522150E-02
       169  5.763698E-03 -2.317435E-03  7.292892E-02
       170 -7.211525E-05 -2.659509E-03  9.188469E-02
       171 -3.339473E-03 -3.293968E-03  9.624560E-02
       172 -2.323483E-03 -3.114613E-03  9.737657E-02
       173 -2.715191E-03 -1.307137E-04  9.574214E-02
       174 -2.562269E-03 -1.054013E-03  9.450628E-02
       175  1.111951E-02 -8.480449E-03  6.008188E-02
       176  1.095578E-02 -8.658056E-03  7.021818E-02
       177  3.359613E-03 -9.259636E-03  9.061496E-02
       178 -4.408309E-03 -1.101083E-02  7.126502E-02
       179 -1.343167E-03 -2.021217E-03  8.776347E-02
       180  2.467947E-03 -1.004722E-02  8.723921E-02
       181  2.333112E-03 -9.725517E-03  8.107796E-02
       182 -4.366062E-03 -1.067530E-02  6.758522E-02
       183 -1.076643E-03 -2.294325E-03  8.186900E-02
       184  5.950452E-03 -8.704959E-03  7.887844E-02
       185 -1.368822E-03 -2.238821E-03  7.944793E-02
       186 -1.329657E-03 -1.490945E-03  5.919541E-02
       187  6.029126E-03 -8.933931E-03  8.577789E-02
       188  5.192468E-03 -9.089167E-03  7.564079E-02
       189 -1.470009E-03 -1.886675E-03  9.041839E-02
       190  3.022182E-03 -9.335866E-03  7.808351E-02
       191  5.492067E-03 -9.244809E-03  8.951774E-02
       192 -1.044027E-03 -2.243492E-03  7.528910E-02
       193 -1.532466E-04 -1.343223E-03  3.892090E-02
       194 -9.491105E-04 -1.557660E-03  5.507142E-02
       195  1.307420E-02 -9.703271E-03  5.392862E-02
       196  1.734169E-02 -9.252395E-03  4.059494E-02
       197  1.751841E-02 -9.166657E-03  5.487421E-02
       198  1.063856E-02 -1.108101E-02  5.552773E-02
       199  1.269202E-02 -1.009969E-02  4.870973E-02
       200  1.300949E-02 -9.872182E-03  6.476680E-02
       201  1.271147E-02 -1.022106E-02  7.024190E-02
       202  1.104230E-02 -1.063006E-02  5.070490E-02
       203  1.070691E-02 -1.119997E-02  6.550209E-02
       204  5.344372E-03 -1.260607E-02  4.662407E-02
       205 -3.374283E-04 -3.207812E-03  5.220490E-02
       206 -6.938962E-05 -3.222395E-03  4.595758E-02
       207  5.099487E-05 -2.324381E-03  6.524317E-02
       208  5.236727E-03 -1.277653E-02  5.313556E-02
       209  1.606630E-04 -2.391788E-03  5.420114E-02
       210  1.111166E-02 -1.075050E-02  7.065765E-02
       211  9.627494E-04 -2.355950E-03  5.158689E-02
       212  2.300321E-02 -5.512188E-03  3.307047E-02
       213  2.295175E-02 -5.452084E-03  1.529025E-02
       214  9.869644E-05 -1.047682E-03  3.352183E-02
       215  1.656686E-02 -6.471253E-03  2.285926E-02
       216  1.697869E-02 -6.348674E-03  3.480479E-02
       217  1.244811E-02 -7.523063E-03  2.715394E-02
       218  1.856646E-02 -5.684799E-03  3.513432E-02
       219  1.584871E-03 -2.005642E-03  2.634528E-02
       220  1.962492E-03 -1.424390E-03  2.314938E-02
       221  1.233771E-02 -7.522334E-03  1.896340E-02
       222  1.538296E-03 -1.324221E-03  2.233335E-02
       223  1.843080E-02 -5.880418E-03  4.166340E-02
       224  1.819574E-02 -5.737241E-03  2.247985E-02
       225  1.804560E-02 -5.987735E-03  1.622210E-02
       226  1.544922E-03 -8.226501E-04  1.540514E-02
       227  1.711415E-02 -6.075303E-03  4.086119E-02
       228  1.785823E-03 -1.518197E-03  3.490684E-02
       229  1.670129E-02 -6.243441E-03  1.708590E-02
       230  1.648612E-03 -1.688476E-03  4.024671E-02
       231  2.001640E-03 -1.124953E-03  1.782017E-02
       232  2.382925E-02  1.109415E-03 -1.098760E-02
       233  1.362060E-02  1.377492E-03 -9.313947E-03
       234  1.919059E-02  1.027760E-03  1.789143E-03
       235  2.383043E-02  1.096867E-03  7.084959E-03
       236  1.769417E-02  1.285937E-03  4.383663E-04
       237  2.011330E-03  2.066073E-04 -1.680698E-03
       238  1.361800E-02  1.705441E-03 -1.073704E-03
       239  2.112669E-03  2.665185E-04 -1.146855E-02
       240  1.931282E-02  9.957360E-04 -1.106361E-02
       241  2.425643E-04  1.380540E-04 -1.177981E-02
       242  1.923166E-02  1.064811E-03 -1.745331E-02
       243  1.622950E-03  3.463668E-04 -1.124865E-02
       244  2.394045E-03  6.591360E-05  3.226525E-04
       245  1.793862E-02  1.214647E-03 -1.148319E-02
       246  1.800657E-02  1.102924E-03 -1.744711E-02
       247  1.910238E-02  1.174026E-03  8.088934E-03
       248  1.776316E-02  1.243537E-03  6.283303E-03
       249 -5.839688E-04  1.028865E-03 -3.492089E-02
       250  1.951699E-02  6.578730E-03 -1.884401E-02
       251  1.369259E-02  7.968713E-03 -3.228211E-02
       252  9.079016E-03  9.372957E-03 -2.740989E-02
       253  1.378757E-02  8.123033E-03 -4.278578E-02
       254  1.563906E-02  6.928299E-03 -3.048101E-02
       255  1.557548E-02  7.018831E-03 -4.175321E-02
       256 -1.456647E-04  7.502937E-04 -1.737039E-02
       257  9.453136E-03  9.184045E-03 -3.500971E-02
       258  1.950391E-02  6.631339E-03 -3.445513E-02
       259  7.513973E-04  1.617186E-03 -4.213868E-02
       260  1.538654E-02  7.289301E-03 -2.491166E-02
       261  8.391368E-04  1.494797E-03 -3.051508E-02
       262  1.115495E-03  1.714471E-03 -4.309983E-02
       263  1.392930E-02  7.638252E-03 -2.717756E-02
       264  4.639381E-04  1.704892E-03 -4.811671E-02
       265  1.541062E-02  7.269764E-03 -4.748231E-02
       266  1.405540E-02  7.698866E-03 -4.825072E-02
       267  1.434319E-02  8.899039E-03 -5.303493E-02
       268  1.012869E-02  9.216145E-03 -6.698978E-02
       269  9.698938E-03  9.026723E-03 -5.811653E-02
       270  7.289902E-03  1.072647E-02 -6.952738E-02
       271  7.287255E-03  1.032952E-02 -6.107336E-02
       272  2.425514E-03  1.245093E-02 -5.849966E-02
       273 -1.013807E-03  1.304655E-03 -3.945321E-02
       274  1.457413E-02  8.651064E-03 -4.039498E-02
       275  1.905060E-03  1.286288E-02 -5.121556E-02
       276 -4.857515E-04  2.281713E-03 -6.997221E-02
       277 -9.715423E-04  1.960410E-03 -6.762431E-02
       278  7.779952E-03  9.921608E-03 -5.704148E-02
       279 -3.840993E-05  2.226160E-03 -6.173363E-02
       280  9.260327E-03  9.333599E-03 -5.379818E-02
       281  9.669226E-03  9.604789E-03 -7.173468E-02
       282  7.895198E-03  1.021776E-02 -7.396892E-02
       283 -1.444985E-03  1.889171E-03 -7.219207E-02
       284  8.094272E-03  4.813645E-03 -5.726344E-02
       285  3.732420E-03  6.026364E-03 -8.224146E-02
       286  3.592585E-03  5.712996E-03 -7.782726E-02
       287 -7.237256E-03  7.991935E-03 -6.769481E-02
       288 -7.068198E-03  8.392798E-03 -7.093375E-02
       289 -2.361623E-04  6.865747E-03 -8.563788E-02
       290 -8.565322E-05  6.328803E-03 -8.164474E-02
       291 -3.780775E-03  1.902736E-03 -6.927051E-02
       292 -1.972685E-03  1.338929E-03 -8.640783E-02
       293 -2.291286E-03  1.179540E-03 -8.292947E-02
       294  8.225891E-03  4.782467E-03 -6.271517E-02
       295 -2.125533E-03  1.620866E-03 -7.835380E-02
       296  3.079866E-03  6.294013E-03 -8.481942E-02
       297  7.504845E-04  6.504179E-03 -8.803374E-02
       298  2.820148E-03  5.946994E-03 -7.577576E-02
       299  7.139032E-04  6.043489E-03 -7.985829E-02
       300 -2.031003E-03  1.103328E-03 -8.818655E-02
       301  0.000000E+00  0.000000E+00  0.000000E+00
       302  0.000000E+00  0.000000E+00  0.000000E+00
       303  0.000000E+00  0.000000E+00  0.000000E+00
       304  0.000000E+00  0.000000E+00  0.000000E+00
       305  0.000000E+00  0.000000E+00  0.000000E+00
       306  0.000000E+00  0.000000E+00  0.000000E+00
       307  0.000000E+00  0.000000E+00  0.000000E+00
       308  0.000000E+00  0.000000E+00  0.000000E+00
       309  0.000000E+00  0.000000E+00  0.000000E+00
       310  0.000000E+00  0.000000E+00  0.000000E+00
       311  0.000000E+00  0.000000E+00  0.000000E+00
       312  0.000000E+00  0.000000E+00  0.000000E+00
       313  0.000000E+00  0.000000E+00  0.000000E+00
       314  0.000000E+00  0.000000E+00  0.000000E+00
       315  0.000000E+00  0.000000E+00  0.000000E+00
       316  0.000000E+00  0.000000E+00  0.000000E+00
       317  0.000000E+00  0.000000E+00  0.000000E+00
       318  0.000000E+00  0.000000E+00  0.000000E+00
       319  0.000000E+00  0.000000E+00  0.000000E+00
       320  0.000000E+00  0.000000E+00  0.000000E+00
       321  0.000000E+00  0.000000E+00  0.000000E+00
       322  0.000000E+00  0.000000E+00  0.000000E+00
       323  0.000000E+00  0.000000E+00  0.000000E+00
       324  0.000000E+00  0.000000E+00  0.000000E+00
       325  0.000000E+00  0.000000E+00  0.000000E+00
       326  0.000000E+00  0.000000E+00  0.000000E+00
       327  0.000000E+00  0.000000E+00  0.000000E+00
       328  0.000000E+00  0.000000E+00  0.000000E+00
       329  0.000000E+00  0.000000E+00  0.000000E+00
       330 -2.302785E-03 -2.206801E-04  9.748772E-02
       331 -2.103021E-03  1.386686E-03  9.235450E-02
       332 -2.361337E-03 -2.755769E-03  7.005764E-02
       333 -3.534558E-03 -1.081448E-03  7.615520E-02
       334  5.848332E-04  2.356979E-03  6.193026E-02
       335 -3.175467E-04  2.908539E-03  4.602277E-02
       336 -7.211754E-04  2.342311E-03  7.452642E-02
       337  0.000000E+00  0.000000E+00  0.000000E+00
       338 -2.038132E-03  2.907487E-03  6.130572E-02
       339  0.000000E+00  0.000000E+00  0.000000E+00
       340  0.000000E+00  0.000000E+00  0.000000E+00
       341 -2.385040E-03  2.879519E-03  6.530177E-02
       342  3.935774E-04  2.371020E-03  6.611356E-02
       343  1.226767E-04 -2.550103E-03  7.017568E-02
       344 -1.026046E-03 -2.414226E-03  7.872028E-02
       345  5.887228E-04 -2.473159E-03  6.596418E-02
       346 -2.317882E-03 -3.047386E-03  6.658092E-02
       347  0.000000E+00  0.000000E+00  0.000000E+00
       348 -3.571775E-03  1.245297E-03  7.424923E-02
       349 -4.260818E-03  1.178817E-03  7.612633E-02
       350  0.000000E+00  0.000000E+00  0.000000E+00
       351 -2.440192E-03 -1.206058E-03  9.196217E-02
       352  1.706567E-03  1.403150E-03  3.236894E-02
       353 -2.492451E-03  3.020570E-04  7.491913E-02
       354 -2.627520E-03  3.202210E-04  9.551180E-02
       355 -2.791744E-03 -3.975448E-04  9.496738E-02
       356 -2.744628E-03  7.988666E-04  9.722011E-02
       357  7.382879E-04  2.387926E-03  4.805992E-02
       358 -2.302672E-03  1.358607E-03  8.974875E-02
       359 -1.008497E-03  1.284700E-03  5.401365E-02
       360 -1.605002E-03  1.572548E-03  5.798637E-02
       361 -2.491195E-05  7.922534E-04  3.298642E-02
       362  1.067628E-03  1.363448E-03  3.395062E-02
       363  7.903979E-04  1.599597E-03  4.024905E-02
       364  1.560581E-03  2.578888E-04  8.896900E-03
       365  4.258673E-04 -2.688070E-04  8.438665E-03
       366  1.719653E-03  4.855620E-05  1.998259E-03
       367 -5.142757E-04  1.226609E-03  3.803581E-02
       368  1.187192E-03 -1.583524E-03  3.558563E-02
       369  8.981233E-04 -1.823311E-03  4.226678E-02
       370 -4.374111E-04 -2.316974E-03  7.089945E-02
       371  4.271384E-04 -2.192202E-03  4.826358E-02
       372 -2.104196E-03 -1.105294E-03  6.952312E-02
       373 -2.198328E-03  9.385009E-04  7.086415E-02
       374 -2.218761E-03 -7.251080E-04  7.174057E-02
       375 -2.013629E-03 -1.609807E-03  8.984504E-02
       376 -1.601120E-03 -1.925594E-03  8.645186E-02
       377 -2.709474E-03 -8.496369E-04  9.320215E-02
       378  1.257046E-03 -8.987121E-04 -1.795773E-02
       379  2.870482E-04 -3.831529E-04 -1.138591E-02
       380  1.031894E-03  1.218619E-03 -2.430781E-02
       381  1.495546E-03  4.049941E-04 -1.799772E-02
       382  2.119347E-03 -4.241926E-04 -1.094143E-02
       383 -5.630779E-05  1.965289E-03 -5.324777E-02
       384 -1.325319E-03  2.907018E-03 -5.087034E-02
       385  1.837950E-04  2.289086E-03 -5.795602E-02
       386  4.693608E-04  2.378545E-03 -3.358308E-02
       387  9.933985E-04  1.859737E-03 -4.777611E-02
       388 -1.862881E-03  1.760992E-03 -7.544503E-02
       389 -1.449066E-03  1.082167E-03 -5.279206E-02
       390  1.322272E-03 -1.845074E-03 -4.210782E-02
       391 -2.701967E-04 -2.196266E-03 -5.236139E-02
       392 -6.320483E-04 -1.194736E-03 -3.404573E-02
       393 -4.546302E-04 -2.172664E-03 -5.713166E-02
       394 -2.907113E-03  1.982569E-05 -8.602684E-02
       395 -2.599404E-03  5.885185E-05 -6.363850E-02
       396 -2.474396E-03  5.156150E-04 -6.254927E-02
       397 -2.614953E-03  8.968501E-04 -8.494673E-02
       398 -2.852316E-03  3.996984E-04 -8.580269E-02
       399 -3.309284E-03 -2.088195E-03 -6.668933E-02
       400  1.651876E-04 -2.346587E-03 -5.622204E-02
       401  4.637218E-04 -2.545784E-03 -3.310204E-02
       402  7.822548E-04 -2.175583E-03 -2.629086E-02
       403  0.000000E+00  0.000000E+00  0.000000E+00
       404  1.796282E-03 -3.009273E-04 -8.368895E-03
       405  1.484701E-03 -1.749202E-03 -2.724013E-02
       406  2.109772E-03 -6.355187E-04 -1.593730E-02
       407  1.485857E-03  1.462573E-03  1.636204E-02
       408  2.024236E-03 -4.680909E-04 -2.083388E-03
       409  3.477363E-04 -7.275313E-04  1.389671E-02
       410  1.470002E-04  6.150119E-04  1.412540E-02
       411  2.145996E-03 -2.094436E-04  5.107057E-03
       412  0.000000E+00  0.000000E+00  0.000000E+00
       413  1.186033E-04  2.996148E-03  3.981894E-02
       414  1.516361E-03  1.597348E-03  2.281198E-02
       415  0.000000E+00  0.000000E+00  0.000000E+00
       416 -4.504848E-03 -3.056324E-05 -7.193518E-02
       417  0.000000E+00  0.000000E+00  0.000000E+00
       418  0.000000E+00  0.000000E+00  0.000000E+00
       419  0.000000E+00  0.000000E+00  0.000000E+00
       420 -1.446558E-03 -3.131627E-03 -4.878277E-02
       421 -3.118133E-03 -2.311385E-03 -6.373642E-02
       422 -1.934536E-03 -1.902045E-03 -7.761052E-02
       423 -1.303163E-03 -2.942177E-03 -5.335004E-02
       424  0.000000E+00  0.000000E+00  0.000000E+00
       425 -3.385111E-03  2.160509E-03 -6.685281E-02
       426  0.000000E+00  0.000000E+00  0.000000E+00
       427 -1.845342E-03  1.799861E-03 -8.042954E-02
       428 -1.950075E-03  1.615981E-03 -8.240824E-02
       429 -7.127668E-04  2.141339E-03 -7.372760E-02
       430 -1.503878E-03  3.050821E-03 -5.658660E-02
       431  0.000000E+00  0.000000E+00  0.000000E+00
       432  0.000000E+00  0.000000E+00  0.000000E+00
       433  1.717522E-03  1.312337E-03 -2.797481E-02
       434  9.530458E-04  2.085990E-03 -2.732701E-02
       435  1.453475E-03  1.637847E-03 -3.272882E-02
       436  1.902929E-03  7.321236E-04 -1.666993E-02
       437  1.900605E-03  4.145687E-04 -8.869938E-03
       438  0.000000E+00  0.000000E+00  0.000000E+00
       439  0.000000E+00  0.000000E+00  0.000000E+00
       440  2.354456E-03 -2.143137E-04  5.740210E-03
       441  1.598096E-03 -2.916904E-04  8.752105E-03
       442  1.648133E-03 -1.886334E-03  1.927983E-02
       443  6.264377E-04 -2.600944E-03  5.607640E-02
       444  0.000000E+00  0.000000E+00  0.000000E+00
       445  0.000000E+00  0.000000E+00  0.000000E+00
       446 -1.925262E-03 -1.281005E-03 -8.602575E-02
       447 -2.204791E-03 -7.343328E-04 -6.224649E-02
       448 -2.199739E-03 -1.435644E-03 -8.152792E-02
       449 -2.254049E-03 -4.514379E-04 -6.301230E-02
       450 -4.775329E-04 -2.244628E-03 -7.133693E-02
       451 -1.919595E-03 -1.908794E-03 -7.353668E-02
       452 -1.059294E-03 -2.084139E-03 -6.576447E-02
       453 -1.895683E-03 -1.139675E-03 -5.458228E-02
       454 -1.893720E-03  8.976343E-04 -5.587964E-02
       455 -1.338773E-03 -2.013370E-03 -7.008229E-02
       456 -4.895510E-04  2.046470E-03 -5.840622E-02
       457  0.000000E+00  0.000000E+00  0.000000E+00
       458  0.000000E+00  0.000000E+00  0.000000E+00
       459  0.000000E+00  0.000000E+00  0.000000E+00
       460  0.000000E+00  0.000000E+00  0.000000E+00
       461  0.000000E+00  0.000000E+00  0.000000E+00
       462  0.000000E+00  0.000000E+00  0.000000E+00
       463  0.000000E+00  0.000000E+00  0.000000E+00
       464  0.000000E+00  0.000000E+00  0.000000E+00
       465  0.000000E+00  0.000000E+00  0.000000E+00
       466  0.000000E+00  0.000000E+00  0.000000E+00
       467  0.000000E+00  0.000000E+00  0.000000E+00
       468  0.000000E+00  0.000000E+00  0.000000E+00
       469  0.000000E+00  0.000000E+00  0.000000E+00
       470  0.000000E+00  0.000000E+00  0.000000E+00
       471  0.000000E+00  0.000000E+00  0.000000E+00
       472  0.000000E+00  0.000000E+00  0.000000E+00
       473  1.724809E-03 -7.178464E-04 -6.375539E-02
       474  1.709443E-03 -6.141422E-04 -6.433730E-02
       475  4.767516E-03 -7.604223E-04 -7.620411E-02
       476  4.950479E-03 -1.045173E-03 -7.697771E-02
       477 -7.348653E-04 -2.288227E-04 -8.738328E-02
       478 -6.664266E-04 -1.160093E-03 -8.823799E-02
       479 -8.034577E-03 -3.909598E-04 -8.377791E-02
       480 -8.050152E-03 -7.943126E-04 -8.430721E-02
       481 -7.170656E-03 -3.120105E-04 -7.257698E-02
       482 -6.907874E-03 -4.059271E-04 -7.344049E-02
       483 -2.984987E-03  9.834983E-05 -7.703445E-02
       484 -8.278739E-04 -4.788623E-04 -8.613208E-02
       485 -2.589363E-03 -4.077111E-04 -8.966275E-02
       486 -2.894817E-03  1.488546E-04 -8.495659E-02
       487 -2.814142E-03 -1.575381E-04 -8.473964E-02
       488 -2.671990E-03 -2.826898E-04 -8.937077E-02
       489 -8.411926E-04 -3.491333E-04 -8.580608E-02
       490 -3.097690E-03 -3.422888E-04 -7.667193E-02
       491 -1.107922E-03 -4.012593E-04 -8.625853E-02
       492 -1.167657E-03 -4.024710E-04 -8.555233E-02
       493 -2.153101E-03 -3.539238E-04 -8.980258E-02
       494 -2.433250E-03 -2.964202E-04 -8.911441E-02
       495 -2.457606E-03  2.306601E-04 -8.882694E-02
       496 -2.655443E-03 -4.050004E-04 -8.797467E-02
       497  2.880366E-03 -3.428954E-03 -5.593671E-02
       498  2.807583E-03 -3.435767E-03 -6.251780E-02
       499 -4.997842E-03 -8.728318E-03 -7.825608E-02
       500 -4.640361E-03 -8.184301E-03 -7.460776E-02
       501  1.769772E-03 -7.290005E-03 -8.520766E-02
       502  1.500929E-03 -6.477297E-03 -7.591943E-02
       503  6.664126E-03 -6.216534E-03 -7.352129E-02
       504  7.061408E-03 -5.891425E-03 -6.778395E-02
       505 -4.848340E-03 -5.413044E-03 -6.425769E-02
       506 -4.741286E-03 -5.882673E-03 -6.799418E-02
       507 -2.709177E-03 -1.259987E-03 -7.389251E-02
       508  6.079894E-04 -4.139655E-03 -8.150426E-02
       509 -1.009732E-03 -4.513636E-03 -8.424530E-02
       510 -1.857654E-03 -1.689612E-03 -7.891738E-02
       511 -1.875688E-03 -1.879189E-03 -7.516512E-02
       512 -1.103844E-03 -4.416905E-03 -7.962882E-02
       513  5.880670E-04 -4.055953E-03 -7.666906E-02
       514 -2.399926E-03 -1.538863E-03 -6.798021E-02
       515  3.919282E-04 -4.221263E-03 -8.397022E-02
       516  3.542789E-04 -4.226047E-03 -7.417375E-02
       517 -6.870988E-04 -4.328155E-03 -8.637013E-02
       518 -7.442482E-04 -4.312751E-03 -7.739673E-02
       519 -2.166176E-03 -1.371142E-03 -8.570713E-02
       520 -1.664467E-03 -1.813246E-03 -7.647767E-02
       521  6.618123E-03 -4.991790E-03 -3.953591E-02
       522  6.322912E-03 -5.116864E-03 -5.186991E-02
       523  3.030923E-03 -1.197447E-02 -6.308394E-02
       524  3.047383E-03 -1.163382E-02 -5.654317E-02
       525  8.239285E-03 -9.876626E-03 -7.095990E-02
       526  7.729184E-03 -9.426537E-03 -5.440368E-02
       527  1.309250E-02 -8.692881E-03 -6.017500E-02
       528  1.250327E-02 -8.663996E-03 -4.965870E-02
       529 -2.960835E-04 -7.503769E-03 -4.900293E-02
       530  2.455533E-04 -7.077672E-03 -5.490788E-02
       531 -1.412727E-03 -1.857370E-03 -6.059881E-02
       532  4.389613E-03 -5.654172E-03 -6.577897E-02
       533  3.228139E-03 -6.396981E-03 -6.794557E-02
       534 -2.830352E-04 -2.565229E-03 -6.365687E-02
       535 -1.531642E-04 -2.566562E-03 -5.708342E-02
       536  3.148439E-03 -6.302905E-03 -5.965997E-02
       537  4.316981E-03 -5.561438E-03 -5.727468E-02
       538 -1.060779E-03 -1.972908E-03 -4.966554E-02
       539  4.211577E-03 -5.770088E-03 -7.004056E-02
       540  4.123815E-03 -5.687209E-03 -5.298973E-02
       541  3.397269E-03 -6.182659E-03 -7.179967E-02
       542  3.414263E-03 -6.082395E-03 -5.568475E-02
       543 -6.074045E-04 -2.287962E-03 -7.139294E-02
       544 -1.468314E-04 -2.187395E-03 -5.483276E-02
       545  9.753616E-03 -3.553809E-03 -1.759968E-02
       546  9.606358E-03 -3.957750E-03 -3.375977E-02
       547  1.450778E-02 -7.575288E-03 -2.534845E-02
       548  1.075418E-02 -9.146711E-03 -3.881232E-02
       549  1.073636E-02 -9.137490E-03 -3.035965E-02
       550  1.847083E-02 -6.769218E-03 -3.823045E-02
       551  1.866793E-02 -6.547903E-03 -2.415910E-02
       552  1.484019E-02 -7.656585E-03 -4.714938E-02
       553  5.212754E-03 -5.843487E-03 -3.409936E-02
       554  4.842040E-03 -5.888823E-03 -2.641281E-02
       555  8.316465E-03 -4.488175E-03 -4.107958E-02
       556  2.770001E-05 -1.606756E-03 -3.839402E-02
       557  7.539269E-03 -4.975953E-03 -4.220348E-02
       558  1.193461E-03 -2.080973E-03 -3.905705E-02
       559  1.377083E-03 -2.050064E-03 -3.080069E-02
       560  7.522958E-03 -4.968584E-03 -3.177795E-02
       561  8.264165E-03 -4.463169E-03 -2.999678E-02
       562  3.011643E-04 -1.351350E-03 -2.435610E-02
       563  8.234971E-03 -4.614007E-03 -4.678406E-02
       564  8.228199E-03 -4.499870E-03 -2.416597E-02