    1C
    1U meshsolid_t.inp                                                  
    1UUSER                                                              
    1UDATE              03.july.2016                                    
    1UTIME              11:17:49                                        
    1UHOST                                                              
    1UPGM               CalculiX                                        
    1UVERSION           Version 2.10                             
    1UCOMPILETIME       Sa 5. Mär 12:23:33 CET 2016                    
    1UDIR                                                               
    1UDBN                                                               
    1UMAT    1PDMS                                                      
    2C                          3097                                     1
 -1         1 2.63013E+00-4.74999E-01 1.70000E+00
 -1         2 2.63013E+00 4.74999E-01 1.70000E+00
 -1         3 9.21869E+00 9.50000E-01 1.70000E+00
 -1         4 9.21869E+00-4.74999E-01 1.70000E+00
 -1         5 5.98657E+00 9.50000E-01 1.70000E+00
 -1         6 5.98657E+00 4.74999E-01 1.70000E+00
 -1         7 9.21869E+00-9.50000E-01 1.70000E+00
 -1         8 5.98657E+00-9.50000E-01 1.70000E+00
 -1         9 1.25751E+01 4.74999E-01 1.70000E+00
 -1        10 9.21869E+00 4.74999E-01 1.70000E+00
 -1        11 1.25751E+01-4.74999E-01 1.70000E+00
 -1        12 1.25751E+01 4.74999E-01 3.49999E-01
 -1        13 9.21869E+00 4.74999E-01 3.49999E-01
 -1        14 5.98657E+00 4.74999E-01 3.49999E-01
 -1        15 5.98657E+00-4.74999E-01 1.70000E+00
 -1        16 5.98657E+00-4.74999E-01 3.49999E-01
 -1        17 9.21869E+00-4.74999E-01 3.49999E-01
 -1        18 5.98657E+00-9.50000E-01 3.49999E-01
 -1        19 8.69874E+00 3.08900E+00 1.70000E+00
 -1        20 1.14361E+01 5.25114E+00 1.70000E+00
 -1        21 8.88051E+00 2.65016E+00 1.70000E+00
 -1        22 8.33519E+00 3.96668E+00 1.70000E+00
 -1        23 5.89442E+00 1.41328E+00 1.70000E+00
 -1        24 8.15341E+00 4.40553E+00 1.70000E+00
 -1        25 1.14361E+01 5.25114E+00 3.49999E-01
 -1        26 1.17997E+01 4.37345E+00 1.70000E+00
 -1        27 5.34909E+00 2.72980E+00 1.70000E+00
 -1        28 2.24815E+00 1.44535E+00 1.70000E+00
 -1        29 5.34909E+00 2.72980E+00 3.49999E-01
 -1        30 2.61170E+00 5.67665E-01 1.70000E+00
 -1        31 5.71264E+00 1.85212E+00 1.70000E+00
 -1        32 5.71264E+00 1.85212E+00 3.49999E-01
 -1        33 8.69874E+00 3.08900E+00 3.49999E-01
 -1        34 8.15341E+00 4.40553E+00 3.49999E-01
 -1        35 8.33519E+00 3.96668E+00 3.49999E-01
 -1        36 5.16732E+00 3.16865E+00 1.70000E+00
 -1        37 6.85448E+00 6.18273E+00 1.70000E+00
 -1        38 6.18273E+00 6.85448E+00 1.70000E+00
 -1        39 8.55608E+00 9.22784E+00 3.49999E-01
 -1        40 8.55608E+00 9.22784E+00 1.70000E+00
 -1        41 6.18273E+00 6.85448E+00 3.49999E-01
 -1        42 1.52391E+00 2.19566E+00 3.49999E-01
 -1        43 3.89727E+00 4.56902E+00 3.49999E-01
 -1        44 1.52391E+00 2.19566E+00 1.70000E+00
 -1        45 2.19566E+00 1.52391E+00 1.70000E+00
 -1        46 9.22784E+00 8.55608E+00 1.70000E+00
 -1        47 4.56902E+00 3.89727E+00 1.70000E+00
 -1        48 3.56139E+00 4.90489E+00 1.70000E+00
 -1        49 3.89727E+00 4.56902E+00 1.70000E+00
 -1        50 7.19035E+00 5.84685E+00 1.70000E+00
 -1        51 5.84685E+00 7.19035E+00 1.70000E+00
 -1        52 4.90489E+00 3.56139E+00 1.70000E+00
 -1        53 4.90489E+00 3.56139E+00 3.49999E-01
 -1        54 5.84685E+00 7.19035E+00 3.49999E-01
 -1        55 2.65016E+00 8.88051E+00 1.70000E+00
 -1        56 3.96668E+00 8.33519E+00 1.70000E+00
 -1        57 3.08900E+00 8.69874E+00 1.70000E+00
 -1        58 2.72980E+00 5.34909E+00 1.70000E+00
 -1        59 1.44535E+00 2.24815E+00 1.70000E+00
 -1        60 4.37345E+00 1.17997E+01 1.70000E+00
 -1        61 5.25114E+00 1.14361E+01 1.70000E+00
 -1        62 4.37345E+00 1.17997E+01 3.49999E-01
 -1        63 1.85212E+00 5.71264E+00 1.70000E+00
 -1        64 5.67665E-01 2.61170E+00 1.70000E+00
 -1        65 1.44535E+00 2.24815E+00 3.49999E-01
 -1        66 5.25114E+00 1.14361E+01 3.49999E-01
 -1        67 1.85212E+00 5.71264E+00 3.49999E-01
 -1        68 3.16865E+00 5.16732E+00 1.70000E+00
 -1        69 4.40553E+00 8.15341E+00 1.70000E+00
 -1        70 1.41328E+00 5.89442E+00 1.70000E+00
 -1        71-4.74999E-01 9.21869E+00 1.70000E+00
 -1        72 4.74999E-01 1.25751E+01 1.70000E+00
 -1        73 4.74999E-01 5.98657E+00 1.70000E+00
 -1        74-4.74999E-01 1.25751E+01 1.70000E+00
 -1        75-4.74999E-01 1.25751E+01 3.49999E-01
 -1        76-4.74999E-01 2.63013E+00 3.49999E-01
 -1        77-4.74999E-01 2.63013E+00 1.70000E+00
 -1        78 4.74999E-01 2.63013E+00 1.70000E+00
 -1        79 4.74999E-01 1.25751E+01 3.49999E-01
 -1        80 4.74999E-01 9.21869E+00 3.49999E-01
 -1        81 9.50000E-01 5.98657E+00 3.49999E-01
 -1        82-9.50000E-01 5.98657E+00 3.49999E-01
 -1        83-9.50000E-01 5.98657E+00 1.70000E+00
 -1        84-4.74999E-01 5.98657E+00 1.70000E+00
 -1        85-4.74999E-01 5.98657E+00 3.49999E-01
 -1        86 9.50000E-01 9.21869E+00 3.49999E-01
 -1        87 4.74999E-01 9.21869E+00 1.70000E+00
 -1        88 9.50000E-01 9.21869E+00 1.70000E+00
 -1        89 9.50000E-01 5.98657E+00 1.70000E+00
 -1        90-9.50000E-01 9.21869E+00 1.70000E+00
 -1        91-1.44535E+00 2.24815E+00 1.70000E+00
 -1        92-1.85212E+00 5.71264E+00 1.70000E+00
 -1        93-2.65016E+00 8.88051E+00 1.70000E+00
 -1        94-2.72980E+00 5.34909E+00 1.70000E+00
 -1        95-3.96668E+00 8.33519E+00 1.70000E+00
 -1        96-3.08900E+00 8.69874E+00 1.70000E+00
 -1        97-3.16865E+00 5.16732E+00 1.70000E+00
 -1        98-5.25114E+00 1.14361E+01 1.70000E+00
 -1        99-4.40553E+00 8.15341E+00 1.70000E+00
 -1       100-4.37345E+00 1.17997E+01 1.70000E+00
 -1       101-4.37345E+00 1.17997E+01 3.49999E-01
 -1       102-3.96668E+00 8.33519E+00 3.49999E-01
 -1       103-5.67665E-01 2.61170E+00 1.70000E+00
 -1       104-1.85212E+00 5.71264E+00 3.49999E-01
 -1       105-1.41328E+00 5.89442E+00 1.70000E+00
 -1       106-2.65016E+00 8.88051E+00 3.49999E-01
 -1       107-3.16865E+00 5.16732E+00 3.49999E-01
 -1       108-2.19566E+00 1.52391E+00 1.70000E+00
 -1       109-1.52391E+00 2.19566E+00 3.49999E-01
 -1       110-6.85448E+00 6.18273E+00 1.70000E+00
 -1       111-9.22784E+00 8.55608E+00 1.70000E+00
 -1       112-3.89727E+00 4.56902E+00 1.70000E+00
 -1       113-3.56139E+00 4.90489E+00 1.70000E+00
 -1       114-6.18273E+00 6.85448E+00 1.70000E+00
 -1       115-4.56902E+00 3.89727E+00 1.70000E+00
 -1       116-1.52391E+00 2.19566E+00 1.70000E+00
 -1       117-8.55608E+00 9.22784E+00 1.70000E+00
 -1       118-9.22784E+00 8.55608E+00 3.49999E-01
 -1       119-3.89727E+00 4.56902E+00 3.49999E-01
 -1       120-3.56139E+00 4.90489E+00 3.49999E-01
 -1       121-4.90489E+00 3.56139E+00 1.70000E+00
 -1       122-4.56902E+00 3.89727E+00 3.49999E-01
 -1       123-6.18273E+00 6.85448E+00 3.49999E-01
 -1       124-5.84685E+00 7.19035E+00 1.70000E+00
 -1       125-7.19035E+00 5.84685E+00 3.49999E-01
 -1       126-6.85448E+00 6.18273E+00 3.49999E-01
 -1       127-7.19035E+00 5.84685E+00 1.70000E+00
 -1       128-2.61170E+00 5.67665E-01 1.70000E+00
 -1       129-1.14361E+01 5.25114E+00 1.70000E+00
 -1       130-1.17997E+01 4.37345E+00 1.70000E+00
 -1       131-8.33519E+00 3.96668E+00 1.70000E+00
 -1       132-5.16732E+00 3.16865E+00 1.70000E+00
 -1       133-5.34909E+00 2.72980E+00 1.70000E+00
 -1       134-2.24815E+00 1.44535E+00 1.70000E+00
 -1       135-1.14361E+01 5.25114E+00 3.49999E-01
 -1       136-1.17997E+01 4.37345E+00 3.49999E-01
 -1       137-5.34909E+00 2.72980E+00 3.49999E-01
 -1       138-8.33519E+00 3.96668E+00 3.49999E-01
 -1       139-5.71264E+00 1.85212E+00 1.70000E+00
 -1       140-5.71264E+00 1.85212E+00 3.49999E-01
 -1       141-5.89442E+00 1.41328E+00 1.70000E+00
 -1       142-8.88051E+00 2.65016E+00 3.49999E-01
 -1       143-8.69874E+00 3.08900E+00 1.70000E+00
 -1       144-8.88051E+00 2.65016E+00 1.70000E+00
 -1       145-8.15341E+00 4.40553E+00 1.70000E+00
 -1       146-8.15341E+00 4.40553E+00 3.49999E-01
 -1       147-5.98657E+00 4.74999E-01 1.70000E+00
 -1       148-5.98657E+00 9.50000E-01 1.70000E+00
 -1       149-9.21869E+00 4.74999E-01 1.70000E+00
 -1       150-9.21869E+00-4.74999E-01 1.70000E+00
 -1       151-2.63013E+00-4.74999E-01 1.70000E+00
 -1       152-5.98657E+00-4.74999E-01 1.70000E+00
 -1       153-1.25751E+01 4.74999E-01 1.70000E+00
 -1       154-1.25751E+01-4.74999E-01 1.70000E+00
 -1       155-2.63013E+00-4.74999E-01 3.49999E-01
 -1       156-2.63013E+00 4.74999E-01 1.70000E+00
 -1       157-9.21869E+00 4.74999E-01 3.49999E-01
 -1       158-9.21869E+00 9.50000E-01 1.70000E+00
 -1       159-5.98657E+00-9.50000E-01 1.70000E+00
 -1       160-9.21869E+00-9.50000E-01 1.70000E+00
 -1       161-5.98657E+00-9.50000E-01 3.49999E-01
 -1       162-2.61170E+00-5.67665E-01 1.70000E+00
 -1       163-5.34909E+00-2.72980E+00 1.70000E+00
 -1       164-5.89442E+00-1.41328E+00 1.70000E+00
 -1       165-5.71264E+00-1.85212E+00 1.70000E+00
 -1       166-8.69874E+00-3.08900E+00 1.70000E+00
 -1       167-8.33519E+00-3.96668E+00 1.70000E+00
 -1       168-8.88051E+00-2.65016E+00 1.70000E+00
 -1       169-1.17997E+01-4.37345E+00 1.70000E+00
 -1       170-1.14361E+01-5.25114E+00 1.70000E+00
 -1       171-5.34909E+00-2.72980E+00 3.49999E-01
 -1       172-2.24815E+00-1.44535E+00 1.70000E+00
 -1       173-2.24815E+00-1.44535E+00 3.49999E-01
 -1       174-8.69874E+00-3.08900E+00 3.49999E-01
 -1       175-5.71264E+00-1.85212E+00 3.49999E-01
 -1       176-5.16732E+00-3.16865E+00 1.70000E+00
 -1       177-8.33519E+00-3.96668E+00 3.49999E-01
 -1       178-8.15341E+00-4.40553E+00 1.70000E+00
 -1       179-4.56902E+00-3.89727E+00 1.70000E+00
 -1       180-4.90489E+00-3.56139E+00 1.70000E+00
 -1       181-3.56139E+00-4.90489E+00 1.70000E+00
 -1       182-6.85448E+00-6.18273E+00 1.70000E+00
 -1       183-7.19035E+00-5.84685E+00 1.70000E+00
 -1       184-6.18273E+00-6.85448E+00 1.70000E+00
 -1       185-8.55608E+00-9.22784E+00 3.49999E-01
 -1       186-8.55608E+00-9.22784E+00 1.70000E+00
 -1       187-1.52391E+00-2.19566E+00 1.70000E+00
 -1       188-2.19566E+00-1.52391E+00 1.70000E+00
 -1       189-9.22784E+00-8.55608E+00 1.70000E+00
 -1       190-6.85448E+00-6.18273E+00 3.49999E-01
 -1       191-4.90489E+00-3.56139E+00 3.49999E-01
 -1       192-3.89727E+00-4.56902E+00 1.70000E+00
 -1       193-3.56139E+00-4.90489E+00 3.49999E-01
 -1       194-5.84685E+00-7.19035E+00 1.70000E+00
 -1       195-5.84685E+00-7.19035E+00 3.49999E-01
 -1       196-1.44535E+00-2.24815E+00 1.70000E+00
 -1       197-1.44535E+00-2.24815E+00 3.49999E-01
 -1       198-3.96668E+00-8.33519E+00 1.70000E+00
 -1       199-5.67665E-01-2.61170E+00 1.70000E+00
 -1       200-2.72980E+00-5.34909E+00 1.70000E+00
 -1       201-4.37345E+00-1.17997E+01 1.70000E+00
 -1       202-5.25114E+00-1.14361E+01 1.70000E+00
 -1       203-5.67665E-01-2.61170E+00 3.49999E-01
 -1       204-1.85212E+00-5.71264E+00 3.49999E-01
 -1       205-5.25114E+00-1.14361E+01 3.49999E-01
 -1       206-3.16865E+00-5.16732E+00 1.70000E+00
 -1       207-1.41328E+00-5.89442E+00 3.49999E-01
 -1       208-1.41328E+00-5.89442E+00 1.70000E+00
 -1       209-1.85212E+00-5.71264E+00 1.70000E+00
 -1       210-3.08900E+00-8.69874E+00 1.70000E+00
 -1       211-2.65016E+00-8.88051E+00 1.70000E+00
 -1       212-3.16865E+00-5.16732E+00 3.49999E-01
 -1       213-4.40553E+00-8.15341E+00 1.70000E+00
 -1       214-4.74999E-01-2.63013E+00 1.70000E+00
 -1       215-9.50000E-01-9.21869E+00 1.70000E+00
 -1       216-4.74999E-01-5.98657E+00 1.70000E+00
 -1       217 4.74999E-01-2.63013E+00 1.70000E+00
 -1       218 4.74999E-01-9.21869E+00 1.70000E+00
 -1       219-4.74999E-01-1.25751E+01 1.70000E+00
 -1       220 4.74999E-01-1.25751E+01 1.70000E+00
 -1       221 4.74999E-01-5.98657E+00 1.70000E+00
 -1       222-4.74999E-01-9.21869E+00 3.49999E-01
 -1       223-4.74999E-01-5.98657E+00 3.49999E-01
 -1       224-9.50000E-01-5.98657E+00 1.70000E+00
 -1       225-4.74999E-01-9.21869E+00 1.70000E+00
 -1       226 9.50000E-01-9.21869E+00 3.49999E-01
 -1       227-9.50000E-01-5.98657E+00 3.49999E-01
 -1       228 9.50000E-01-5.98657E+00 3.49999E-01
 -1       229 9.50000E-01-5.98657E+00 1.70000E+00
 -1       230 9.50000E-01-9.21869E+00 1.70000E+00
 -1       231 5.67665E-01-2.61170E+00 3.49999E-01
 -1       232 5.25114E+00-1.14361E+01 1.70000E+00
 -1       233 3.08900E+00-8.69874E+00 1.70000E+00
 -1       234 1.85212E+00-5.71264E+00 1.70000E+00
 -1       235 1.44535E+00-2.24815E+00 1.70000E+00
 -1       236 2.65016E+00-8.88051E+00 1.70000E+00
 -1       237 3.96668E+00-8.33519E+00 1.70000E+00
 -1       238 3.96668E+00-8.33519E+00 3.49999E-01
 -1       239 2.72980E+00-5.34909E+00 1.70000E+00
 -1       240 5.67665E-01-2.61170E+00 1.70000E+00
 -1       241 4.37345E+00-1.17997E+01 3.49999E-01
 -1       242 4.37345E+00-1.17997E+01 1.70000E+00
 -1       243 1.85212E+00-5.71264E+00 3.49999E-01
 -1       244 1.41328E+00-5.89442E+00 1.70000E+00
 -1       245 1.41328E+00-5.89442E+00 3.49999E-01
 -1       246 3.16865E+00-5.16732E+00 3.49999E-01
 -1       247 3.16865E+00-5.16732E+00 1.70000E+00
 -1       248 2.72980E+00-5.34909E+00 3.49999E-01
 -1       249 2.65016E+00-8.88051E+00 3.49999E-01
 -1       250 4.40553E+00-8.15341E+00 1.70000E+00
 -1       251 4.40553E+00-8.15341E+00 3.49999E-01
 -1       252 4.56902E+00-3.89727E+00 1.70000E+00
 -1       253 2.19566E+00-1.52391E+00 1.70000E+00
 -1       254 1.52391E+00-2.19566E+00 1.70000E+00
 -1       255 7.19035E+00-5.84685E+00 1.70000E+00
 -1       256 6.85448E+00-6.18273E+00 1.70000E+00
 -1       257 6.18273E+00-6.85448E+00 1.70000E+00
 -1       258 8.55608E+00-9.22784E+00 1.70000E+00
 -1       259 9.22784E+00-8.55608E+00 3.49999E-01
 -1       260 9.22784E+00-8.55608E+00 1.70000E+00
 -1       261 6.85448E+00-6.18273E+00 3.49999E-01
 -1       262 3.89727E+00-4.56902E+00 1.70000E+00
 -1       263 8.55608E+00-9.22784E+00 3.49999E-01
 -1       264 3.89727E+00-4.56902E+00 3.49999E-01
 -1       265 3.56139E+00-4.90489E+00 3.49999E-01
 -1       266 4.90489E+00-3.56139E+00 3.49999E-01
 -1       267 4.90489E+00-3.56139E+00 1.70000E+00
 -1       268 4.56902E+00-3.89727E+00 3.49999E-01
 -1       269 6.18273E+00-6.85448E+00 3.49999E-01
 -1       270 5.84685E+00-7.19035E+00 1.70000E+00
 -1       271 7.19035E+00-5.84685E+00 3.49999E-01
 -1       272 3.56139E+00-4.90489E+00 1.70000E+00
 -1       273 2.61170E+00-5.67665E-01 1.70000E+00
 -1       274 5.71264E+00-1.85212E+00 1.70000E+00
 -1       275 8.33519E+00-3.96668E+00 1.70000E+00
 -1       276 1.17997E+01-4.37345E+00 1.70000E+00
 -1       277 1.14361E+01-5.25114E+00 1.70000E+00
 -1       278 1.14361E+01-5.25114E+00 3.49999E-01
 -1       279 8.69874E+00-3.08900E+00 1.70000E+00
 -1       280 2.24815E+00-1.44535E+00 1.70000E+00
 -1       281 5.34909E+00-2.72980E+00 1.70000E+00
 -1       282 5.34909E+00-2.72980E+00 3.49999E-01
 -1       283 5.16732E+00-3.16865E+00 3.49999E-01
 -1       284 5.16732E+00-3.16865E+00 1.70000E+00
 -1       285 8.33519E+00-3.96668E+00 3.49999E-01
 -1       286 8.15341E+00-4.40553E+00 1.70000E+00
 -1       287 8.88051E+00-2.65016E+00 1.70000E+00
 -1       288 8.69874E+00-3.08900E+00 3.49999E-01
 -1       289 8.88051E+00-2.65016E+00 3.49999E-01
 -1       290 5.89442E+00-1.41328E+00 1.70000E+00
 -1       291-1.66733E+01 3.31653E+00 3.49999E-01
 -1       292-1.70000E+01 0.00000E+00-3.49999E-01
 -1       293 3.31653E+00 1.66733E+01-3.49999E-01
 -1       294 1.41350E+01 9.44469E+00 3.49999E-01
 -1       295 1.41350E+01 9.44469E+00-3.49999E-01
 -1       296 1.66733E+01 3.31653E+00-3.49999E-01
 -1       297 1.66733E+01-3.31653E+00-3.49999E-01
 -1       298 1.41350E+01-9.44469E+00-3.49999E-01
 -1       299 1.57060E+01 6.50562E+00-3.49999E-01
 -1       300 9.44469E+00-1.41350E+01-3.49999E-01
 -1       301 1.20208E+01 1.20208E+01-3.49999E-01
 -1       302 9.44469E+00 1.41350E+01-3.49999E-01
 -1       303 6.50562E+00 1.57060E+01-3.49999E-01
 -1       304-3.31653E+00-1.66733E+01-3.49999E-01
 -1       305-6.50562E+00 1.57060E+01-3.49999E-01
 -1       306-9.44469E+00 1.41350E+01-3.49999E-01
 -1       307-1.20208E+01-1.20208E+01-3.49999E-01
 -1       308-1.20208E+01 1.20208E+01-3.49999E-01
 -1       309-1.41350E+01 9.44469E+00-3.49999E-01
 -1       310-1.57060E+01 6.50562E+00-3.49999E-01
 -1       311-1.66733E+01 3.31653E+00-3.49999E-01
 -1       312 1.57060E+01 6.50562E+00 3.49999E-01
 -1       313 3.31653E+00 1.66733E+01 3.49999E-01
 -1       314-1.41350E+01 9.44469E+00 3.49999E-01
 -1       315-8.69874E+00 3.08900E+00 3.49999E-01
 -1       316-1.57060E+01 6.50562E+00 3.49999E-01
 -1       317-8.88051E+00-2.65016E+00 3.49999E-01
 -1       318-9.21869E+00-4.74999E-01 3.49999E-01
 -1       319-9.21869E+00-9.50000E-01 3.49999E-01
 -1       320-1.25751E+01-4.74999E-01 3.49999E-01
 -1       321-1.66733E+01-3.31653E+00 3.49999E-01
 -1       322-1.25751E+01 4.74999E-01 3.49999E-01
 -1       323-1.17997E+01-4.37345E+00 3.49999E-01
 -1       324-1.57060E+01-6.50562E+00 3.49999E-01
 -1       325-1.70000E+01 0.00000E+00 3.49999E-01
 -1       326-1.20208E+01 1.20208E+01 3.49999E-01
 -1       327-5.89442E+00 1.41328E+00 3.49999E-01
 -1       328-9.21869E+00 9.50000E-01 3.49999E-01
 -1       329-1.14361E+01-5.25114E+00 3.49999E-01
 -1       330-8.15341E+00-4.40553E+00 3.49999E-01
 -1       331-9.22784E+00-8.55608E+00 3.49999E-01
 -1       332-1.20208E+01-1.20208E+01 3.49999E-01
 -1       333-3.96668E+00-8.33519E+00 3.49999E-01
 -1       334-4.40553E+00-8.15341E+00 3.49999E-01
 -1       335-7.19035E+00-5.84685E+00 3.49999E-01
 -1       336-5.25114E+00 1.14361E+01 3.49999E-01
 -1       337-4.40553E+00 8.15341E+00 3.49999E-01
 -1       338-5.84685E+00 7.19035E+00 3.49999E-01
 -1       339-2.61170E+00-5.67665E-01 3.49999E-01
 -1       340-2.61170E+00 5.67665E-01 3.49999E-01
 -1       341-2.63013E+00 4.74999E-01 3.49999E-01
 -1       342-5.98657E+00 9.50000E-01 3.49999E-01
 -1       343-5.98657E+00 4.74999E-01 3.49999E-01
 -1       344-2.19566E+00 1.52391E+00 3.49999E-01
 -1       345-4.90489E+00 3.56139E+00 3.49999E-01
 -1       346-2.24815E+00 1.44535E+00 3.49999E-01
 -1       347-5.16732E+00 3.16865E+00 3.49999E-01
 -1       348-2.72980E+00 5.34909E+00 3.49999E-01
 -1       349-1.44535E+00 2.24815E+00 3.49999E-01
 -1       350-4.74999E-01-2.63013E+00 3.49999E-01
 -1       351-2.72980E+00-5.34909E+00 3.49999E-01
 -1       352-1.52391E+00-2.19566E+00 3.49999E-01
 -1       353-3.89727E+00-4.56902E+00 3.49999E-01
 -1       354-2.19566E+00-1.52391E+00 3.49999E-01
 -1       355-4.56902E+00-3.89727E+00 3.49999E-01
 -1       356-5.16732E+00-3.16865E+00 3.49999E-01
 -1       357-5.98657E+00-4.74999E-01 3.49999E-01
 -1       358-5.89442E+00-1.41328E+00 3.49999E-01
 -1       359-5.67665E-01 2.61170E+00 3.49999E-01
 -1       360 5.67665E-01 2.61170E+00 3.49999E-01
 -1       361 4.74999E-01-2.63013E+00 3.49999E-01
 -1       362 4.74999E-01 2.63013E+00 3.49999E-01
 -1       363 4.74999E-01-5.98657E+00 3.49999E-01
 -1       364 1.41328E+00 5.89442E+00 3.49999E-01
 -1       365 4.74999E-01 5.98657E+00 3.49999E-01
 -1       366 3.96668E+00 8.33519E+00 3.49999E-01
 -1       367 2.24815E+00-1.44535E+00 3.49999E-01
 -1       368 2.19566E+00-1.52391E+00 3.49999E-01
 -1       369 2.72980E+00 5.34909E+00 3.49999E-01
 -1       370 3.16865E+00 5.16732E+00 3.49999E-01
 -1       371 5.84685E+00-7.19035E+00 3.49999E-01
 -1       372 5.89442E+00-1.41328E+00 3.49999E-01
 -1       373 5.71264E+00-1.85212E+00 3.49999E-01
 -1       374 2.63013E+00-4.74999E-01 3.49999E-01
 -1       375 2.24815E+00 1.44535E+00 3.49999E-01
 -1       376 2.61170E+00-5.67665E-01 3.49999E-01
 -1       377 9.21869E+00 9.50000E-01 3.49999E-01
 -1       378 9.44469E+00 1.41350E+01 3.49999E-01
 -1       379 6.50562E+00 1.57060E+01 3.49999E-01
 -1       380 2.65016E+00 8.88051E+00 3.49999E-01
 -1       381 3.08900E+00 8.69874E+00 3.49999E-01
 -1       382-4.74999E-01 9.21869E+00 3.49999E-01
 -1       383-1.41328E+00 5.89442E+00 3.49999E-01
 -1       384-9.50000E-01 9.21869E+00 3.49999E-01
 -1       385-3.08900E+00 8.69874E+00 3.49999E-01
 -1       386-6.50562E+00 1.57060E+01 3.49999E-01
 -1       387-3.31653E+00 1.66733E+01 3.49999E-01
 -1       388-9.44469E+00 1.41350E+01 3.49999E-01
 -1       389-8.55608E+00 9.22784E+00 3.49999E-01
 -1       390 1.17997E+01 4.37345E+00 3.49999E-01
 -1       391 9.22784E+00 8.55608E+00 3.49999E-01
 -1       392 7.19035E+00 5.84685E+00 3.49999E-01
 -1       393 6.85448E+00 6.18273E+00 3.49999E-01
 -1       394 1.66733E+01 3.31653E+00 3.49999E-01
 -1       395 1.70000E+01 0.00000E+00 3.49999E-01
 -1       396 1.17997E+01-4.37345E+00 3.49999E-01
 -1       397 1.25751E+01-4.74999E-01 3.49999E-01
 -1       398 1.20208E+01 1.20208E+01 3.49999E-01
 -1       399 1.57060E+01-6.50562E+00 3.49999E-01
 -1       400 9.21869E+00-9.50000E-01 3.49999E-01
 -1       401 1.41350E+01-9.44469E+00 3.49999E-01
 -1       402 1.20208E+01-1.20208E+01 3.49999E-01
 -1       403 8.15341E+00-4.40553E+00 3.49999E-01
 -1       404 5.25114E+00-1.14361E+01 3.49999E-01
 -1       405 9.44469E+00-1.41350E+01 3.49999E-01
 -1       406 6.50562E+00-1.57060E+01 3.49999E-01
 -1       407 3.08900E+00-8.69874E+00 3.49999E-01
 -1       408 4.74999E-01-1.25751E+01 3.49999E-01
 -1       409 4.74999E-01-9.21869E+00 3.49999E-01
 -1       410 3.31653E+00-1.66733E+01 3.49999E-01
 -1       411-9.50000E-01-9.21869E+00 3.49999E-01
 -1       412-2.65016E+00-8.88051E+00 3.49999E-01
 -1       413-4.37345E+00-1.17997E+01 3.49999E-01
 -1       414-3.08900E+00-8.69874E+00 3.49999E-01
 -1       415-4.74999E-01-1.25751E+01 3.49999E-01
 -1       416-6.18273E+00-6.85448E+00 3.49999E-01
 -1       417-6.50562E+00-1.57060E+01 3.49999E-01
 -1       418 8.88051E+00 2.65016E+00 3.49999E-01
 -1       419 5.98657E+00 9.50000E-01 3.49999E-01
 -1       420 5.89442E+00 1.41328E+00 3.49999E-01
 -1       421 2.63013E+00 4.74999E-01 3.49999E-01
 -1       422 2.61170E+00 5.67665E-01 3.49999E-01
 -1       423 3.56139E+00 4.90489E+00 3.49999E-01
 -1       424 4.40553E+00 8.15341E+00 3.49999E-01
 -1       425 2.19566E+00 1.52391E+00 3.49999E-01
 -1       426 4.56902E+00 3.89727E+00 3.49999E-01
 -1       427 5.16732E+00 3.16865E+00 3.49999E-01
 -1       428 1.52391E+00-2.19566E+00 3.49999E-01
 -1       429 1.44535E+00-2.24815E+00 3.49999E-01
 -1       430 0.00000E+00 1.70000E+01-3.49999E-01
 -1       431 0.00000E+00 1.70000E+01 3.49999E-01
 -1       432-3.31653E+00 1.66733E+01-3.49999E-01
 -1       433 1.70000E+01 0.00000E+00-3.49999E-01
 -1       434 1.20208E+01-1.20208E+01-3.49999E-01
 -1       435-9.44469E+00-1.41350E+01 3.49999E-01
 -1       436-1.66733E+01-3.31653E+00-3.49999E-01
 -1       437 1.66733E+01-3.31653E+00 3.49999E-01
 -1       438 1.57060E+01-6.50562E+00-3.49999E-01
 -1       439-9.44469E+00-1.41350E+01-3.49999E-01
 -1       440-6.50562E+00-1.57060E+01-3.49999E-01
 -1       441 0.00000E+00-1.70000E+01 3.49999E-01
 -1       442-3.31653E+00-1.66733E+01 3.49999E-01
 -1       443 0.00000E+00-1.70000E+01-3.49999E-01
 -1       444-1.41350E+01-9.44469E+00-3.49999E-01
 -1       445-1.41350E+01-9.44469E+00 3.49999E-01
 -1       446-1.57060E+01-6.50562E+00-3.49999E-01
 -1       447 3.31653E+00-1.66733E+01-3.49999E-01
 -1       448 6.50562E+00-1.57060E+01-3.49999E-01
 -1       449 2.63013E+00 4.74999E-01 1.02500E+00
 -1       450 2.63013E+00-4.74999E-01 1.02500E+00
 -1       451 4.30835E+00 4.74999E-01 1.70000E+00
 -1       452 4.30835E+00-4.74999E-01 1.70000E+00
 -1       453 7.60263E+00 9.50000E-01 1.70000E+00
 -1       454 7.60263E+00-9.50000E-01 1.70000E+00
 -1       455 1.08969E+01 4.74999E-01 1.70000E+00
 -1       456 1.08969E+01-4.74999E-01 1.70000E+00
 -1       457 1.25751E+01 4.74999E-01 1.02500E+00
 -1       458 1.25751E+01-4.74999E-01 1.02500E+00
 -1       459 1.08969E+01 4.74999E-01 3.49999E-01
 -1       460 9.21869E+00 4.74999E-01 1.02500E+00
 -1       461 5.98657E+00 4.74999E-01 1.02500E+00
 -1       462 4.30835E+00 4.74999E-01 3.49999E-01
 -1       463 4.30835E+00-4.74999E-01 3.49999E-01
 -1       464 5.98657E+00-4.74999E-01 1.02500E+00
 -1       465 9.21869E+00-4.74999E-01 1.02500E+00
 -1       466 1.08969E+01-4.74999E-01 3.49999E-01
 -1       467 5.98657E+00-9.50000E-01 1.02500E+00
 -1       468 5.98657E+00 9.50000E-01 1.02500E+00
 -1       469 9.21869E+00-9.50000E-01 1.02500E+00
 -1       470 9.21869E+00 9.50000E-01 1.02500E+00
 -1       471 7.60263E+00-9.50000E-01 3.49999E-01
 -1       472 7.60263E+00 9.50000E-01 3.49999E-01
 -1       473 2.24815E+00 1.44535E+00 1.02500E+00
 -1       474 2.61170E+00 5.67665E-01 1.02500E+00
 -1       475 1.02492E+01 3.73123E+00 1.70000E+00
 -1       476 9.88564E+00 4.60891E+00 1.70000E+00
 -1       477 7.38747E+00 2.03172E+00 1.70000E+00
 -1       478 6.66037E+00 3.78709E+00 1.70000E+00
 -1       479 4.16217E+00 1.20989E+00 1.70000E+00
 -1       480 3.79862E+00 2.08757E+00 1.70000E+00
 -1       481 1.14361E+01 5.25114E+00 1.02500E+00
 -1       482 1.17997E+01 4.37345E+00 1.02500E+00
 -1       483 9.88564E+00 4.60891E+00 3.49999E-01
 -1       484 8.33519E+00 3.96668E+00 1.02500E+00
 -1       485 5.34909E+00 2.72980E+00 1.02500E+00
 -1       486 3.79862E+00 2.08757E+00 3.49999E-01
 -1       487 4.16217E+00 1.20989E+00 3.49999E-01
 -1       488 5.71264E+00 1.85212E+00 1.02500E+00
 -1       489 8.69874E+00 3.08900E+00 1.02500E+00
 -1       490 1.02492E+01 3.73123E+00 3.49999E-01
 -1       491 5.89442E+00 1.41328E+00 1.02500E+00
 -1       492 5.16732E+00 3.16865E+00 1.02500E+00
 -1       493 8.88051E+00 2.65016E+00 1.02500E+00
 -1       494 8.15341E+00 4.40553E+00 1.02500E+00
 -1       495 7.38747E+00 2.03172E+00 3.49999E-01
 -1       496 6.66037E+00 3.78709E+00 3.49999E-01
 -1       497 1.52391E+00 2.19566E+00 1.02500E+00
 -1       498 2.19566E+00 1.52391E+00 1.02500E+00
 -1       499 8.04116E+00 7.36940E+00 1.70000E+00
 -1       500 7.36940E+00 8.04116E+00 1.70000E+00
 -1       501 6.04762E+00 4.70412E+00 1.70000E+00
 -1       502 4.70412E+00 6.04762E+00 1.70000E+00
 -1       503 3.38234E+00 2.71059E+00 1.70000E+00
 -1       504 2.71059E+00 3.38234E+00 1.70000E+00
 -1       505 8.55608E+00 9.22784E+00 1.02500E+00
 -1       506 9.22784E+00 8.55608E+00 1.02500E+00
 -1       507 7.36940E+00 8.04116E+00 3.49999E-01
 -1       508 6.18273E+00 6.85448E+00 1.02500E+00
 -1       509 3.89727E+00 4.56902E+00 1.02500E+00
 -1       510 2.71059E+00 3.38234E+00 3.49999E-01
 -1       511 4.56902E+00 3.89727E+00 1.02500E+00
 -1       512 3.38234E+00 2.71059E+00 3.49999E-01
 -1       513 6.85448E+00 6.18273E+00 1.02500E+00
 -1       514 8.04116E+00 7.36940E+00 3.49999E-01
 -1       515 4.90489E+00 3.56139E+00 1.02500E+00
 -1       516 3.56139E+00 4.90489E+00 1.02500E+00
 -1       517 7.19035E+00 5.84685E+00 1.02500E+00
 -1       518 5.84685E+00 7.19035E+00 1.02500E+00
 -1       519 6.04762E+00 4.70412E+00 3.49999E-01
 -1       520 4.70412E+00 6.04762E+00 3.49999E-01
 -1       521 5.67665E-01 2.61170E+00 1.02500E+00
 -1       522 1.44535E+00 2.24815E+00 1.02500E+00
 -1       523 2.03172E+00 7.38747E+00 1.70000E+00
 -1       524 4.60891E+00 9.88564E+00 1.70000E+00
 -1       525 3.73123E+00 1.02492E+01 1.70000E+00
 -1       526 2.08757E+00 3.79862E+00 1.70000E+00
 -1       527 1.20989E+00 4.16217E+00 1.70000E+00
 -1       528 3.78709E+00 6.66037E+00 1.70000E+00
 -1       529 5.25114E+00 1.14361E+01 1.02500E+00
 -1       530 4.37345E+00 1.17997E+01 1.02500E+00
 -1       531 3.73123E+00 1.02492E+01 3.49999E-01
 -1       532 3.08900E+00 8.69874E+00 1.02500E+00
 -1       533 1.85212E+00 5.71264E+00 1.02500E+00
 -1       534 1.20989E+00 4.16217E+00 3.49999E-01
 -1       535 2.72980E+00 5.34909E+00 1.02500E+00
 -1       536 2.08757E+00 3.79862E+00 3.49999E-01
 -1       537 3.96668E+00 8.33519E+00 1.02500E+00
 -1       538 4.60891E+00 9.88564E+00 3.49999E-01
 -1       539 3.16865E+00 5.16732E+00 1.02500E+00
 -1       540 1.41328E+00 5.89442E+00 1.02500E+00
 -1       541 4.40553E+00 8.15341E+00 1.02500E+00
 -1       542 2.65016E+00 8.88051E+00 1.02500E+00
 -1       543 3.78709E+00 6.66037E+00 3.49999E-01
 -1       544 2.03172E+00 7.38747E+00 3.49999E-01
 -1       545-4.74999E-01 2.63013E+00 1.02500E+00
 -1       546 4.74999E-01 2.63013E+00 1.02500E+00
 -1       547-9.50000E-01 7.60263E+00 1.70000E+00
 -1       548 4.74999E-01 1.08969E+01 1.70000E+00
 -1       549-4.74999E-01 1.08969E+01 1.70000E+00
 -1       550 4.74999E-01 4.30835E+00 1.70000E+00
 -1       551-4.74999E-01 4.30835E+00 1.70000E+00
 -1       552 9.50000E-01 7.60263E+00 1.70000E+00
 -1       553 4.74999E-01 1.25751E+01 1.02500E+00
 -1       554-4.74999E-01 1.25751E+01 1.02500E+00
 -1       555-4.74999E-01 1.08969E+01 3.49999E-01
 -1       556-4.74999E-01 9.21869E+00 1.02500E+00
 -1       557-4.74999E-01 5.98657E+00 1.02500E+00
 -1       558-4.74999E-01 4.30835E+00 3.49999E-01
 -1       559 4.74999E-01 5.98657E+00 1.02500E+00
 -1       560 4.74999E-01 4.30835E+00 3.49999E-01
 -1       561 4.74999E-01 9.21869E+00 1.02500E+00
 -1       562 4.74999E-01 1.08969E+01 3.49999E-01
 -1       563 9.50000E-01 5.98657E+00 1.02500E+00
 -1       564-9.50000E-01 5.98657E+00 1.02500E+00
 -1       565 9.50000E-01 9.21869E+00 1.02500E+00
 -1       566-9.50000E-01 9.21869E+00 1.02500E+00
 -1       567 9.50000E-01 7.60263E+00 3.49999E-01
 -1       568-9.50000E-01 7.60263E+00 3.49999E-01
 -1       569-1.44535E+00 2.24815E+00 1.02500E+00
 -1       570-5.67665E-01 2.61170E+00 1.02500E+00
 -1       571-2.03172E+00 7.38747E+00 1.70000E+00
 -1       572-1.20989E+00 4.16217E+00 1.70000E+00
 -1       573-2.08757E+00 3.79862E+00 1.70000E+00
 -1       574-3.73123E+00 1.02492E+01 1.70000E+00
 -1       575-4.60891E+00 9.88564E+00 1.70000E+00
 -1       576-3.78709E+00 6.66037E+00 1.70000E+00
 -1       577-4.37345E+00 1.17997E+01 1.02500E+00
 -1       578-5.25114E+00 1.14361E+01 1.02500E+00
 -1       579-4.60891E+00 9.88564E+00 3.49999E-01
 -1       580-3.96668E+00 8.33519E+00 1.02500E+00
 -1       581-2.72980E+00 5.34909E+00 1.02500E+00
 -1       582-2.08757E+00 3.79862E+00 3.49999E-01