    1C
    1U meshsolid_t.inp                                                  
    1UUSER                                                              
    1UDATE              03.july.2016                                    
    1UTIME              00:38:21                                        
    1UHOST                                                              
    1UPGM               CalculiX                                        
    1UVERSION           Version 2.10                             
    1UCOMPILETIME       Sa 5. Mär 12:23:33 CET 2016                    
    1UDIR                                                               
    1UDBN                                                               
    1UMAT    1PDMS                                                      
    2C                          3154                                     1
 -1         1 2.63013E+00-4.74999E-01 3.49999E-01
 -1         2 2.63013E+00 4.74999E-01 3.49999E-01
 -1         3 2.63013E+00-4.74999E-01 1.70000E+00
 -1         4 9.21869E+00 9.50000E-01 1.70000E+00
 -1         5 5.98657E+00 4.74999E-01 1.70000E+00
 -1         6 9.21869E+00-9.50000E-01 1.70000E+00
 -1         7 9.21869E+00 4.74999E-01 1.70000E+00
 -1         8 9.21869E+00-4.74999E-01 1.70000E+00
 -1         9 1.25751E+01 4.74999E-01 3.49999E-01
 -1        10 1.25751E+01-4.74999E-01 1.70000E+00
 -1        11 5.98657E+00-4.74999E-01 1.70000E+00
 -1        12 9.21869E+00-4.74999E-01 3.49999E-01
 -1        13 1.25751E+01 4.74999E-01 1.70000E+00
 -1        14 2.63013E+00 4.74999E-01 1.70000E+00
 -1        15 5.98657E+00-4.74999E-01 3.49999E-01
 -1        16 5.98657E+00-9.50000E-01 1.70000E+00
 -1        17 5.98657E+00 9.50000E-01 1.70000E+00
 -1        18 2.61170E+00 5.67665E-01 1.70000E+00
 -1        19 8.69874E+00 3.08900E+00 1.70000E+00
 -1        20 5.34909E+00 2.72980E+00 1.70000E+00
 -1        21 5.71264E+00 1.85212E+00 1.70000E+00
 -1        22 8.15341E+00 4.40553E+00 1.70000E+00
 -1        23 1.14361E+01 5.25114E+00 3.49999E-01
 -1        24 1.17997E+01 4.37345E+00 1.70000E+00
 -1        25 1.14361E+01 5.25114E+00 1.70000E+00
 -1        26 8.33519E+00 3.96668E+00 1.70000E+00
 -1        27 8.33519E+00 3.96668E+00 3.49999E-01
 -1        28 2.24815E+00 1.44535E+00 1.70000E+00
 -1        29 5.71264E+00 1.85212E+00 3.49999E-01
 -1        30 5.89442E+00 1.41328E+00 1.70000E+00
 -1        31 5.16732E+00 3.16865E+00 1.70000E+00
 -1        32 5.34909E+00 2.72980E+00 3.49999E-01
 -1        33 8.69874E+00 3.08900E+00 3.49999E-01
 -1        34 8.88051E+00 2.65016E+00 1.70000E+00
 -1        35 8.88051E+00 2.65016E+00 3.49999E-01
 -1        36 8.15341E+00 4.40553E+00 3.49999E-01
 -1        37 5.89442E+00 1.41328E+00 3.49999E-01
 -1        38 5.16732E+00 3.16865E+00 3.49999E-01
 -1        39 2.19566E+00 1.52391E+00 3.49999E-01
 -1        40 6.18273E+00 6.85448E+00 1.70000E+00
 -1        41 6.85448E+00 6.18273E+00 1.70000E+00
 -1        42 2.19566E+00 1.52391E+00 1.70000E+00
 -1        43 9.22784E+00 8.55608E+00 1.70000E+00
 -1        44 8.55608E+00 9.22784E+00 1.70000E+00
 -1        45 4.56902E+00 3.89727E+00 3.49999E-01
 -1        46 6.18273E+00 6.85448E+00 3.49999E-01
 -1        47 1.52391E+00 2.19566E+00 1.70000E+00
 -1        48 4.56902E+00 3.89727E+00 1.70000E+00
 -1        49 4.90489E+00 3.56139E+00 1.70000E+00
 -1        50 3.56139E+00 4.90489E+00 1.70000E+00
 -1        51 3.89727E+00 4.56902E+00 1.70000E+00
 -1        52 7.19035E+00 5.84685E+00 1.70000E+00
 -1        53 5.84685E+00 7.19035E+00 1.70000E+00
 -1        54 4.90489E+00 3.56139E+00 3.49999E-01
 -1        55 5.84685E+00 7.19035E+00 3.49999E-01
 -1        56 5.67665E-01 2.61170E+00 1.70000E+00
 -1        57 2.65016E+00 8.88051E+00 1.70000E+00
 -1        58 1.41328E+00 5.89442E+00 1.70000E+00
 -1        59 3.08900E+00 8.69874E+00 1.70000E+00
 -1        60 1.44535E+00 2.24815E+00 1.70000E+00
 -1        61 4.37345E+00 1.17997E+01 1.70000E+00
 -1        62 2.72980E+00 5.34909E+00 1.70000E+00
 -1        63 5.25114E+00 1.14361E+01 1.70000E+00
 -1        64 3.96668E+00 8.33519E+00 1.70000E+00
 -1        65 1.85212E+00 5.71264E+00 1.70000E+00
 -1        66 2.72980E+00 5.34909E+00 3.49999E-01
 -1        67 1.41328E+00 5.89442E+00 3.49999E-01
 -1        68 1.85212E+00 5.71264E+00 3.49999E-01
 -1        69 4.40553E+00 8.15341E+00 1.70000E+00
 -1        70 3.96668E+00 8.33519E+00 3.49999E-01
 -1        71 4.40553E+00 8.15341E+00 3.49999E-01
 -1        72 3.16865E+00 5.16732E+00 1.70000E+00
 -1        73 4.74999E-01 2.63013E+00 1.70000E+00
 -1        74-4.74999E-01 2.63013E+00 1.70000E+00
 -1        75-4.74999E-01 9.21869E+00 1.70000E+00
 -1        76 4.74999E-01 1.25751E+01 1.70000E+00
 -1        77-4.74999E-01 1.25751E+01 1.70000E+00
 -1        78 4.74999E-01 2.63013E+00 3.49999E-01
 -1        79 4.74999E-01 9.21869E+00 1.70000E+00
 -1        80-4.74999E-01 9.21869E+00 3.49999E-01
 -1        81-4.74999E-01 5.98657E+00 1.70000E+00
 -1        82-4.74999E-01 5.98657E+00 3.49999E-01
 -1        83 4.74999E-01 5.98657E+00 1.70000E+00
 -1        84 9.50000E-01 5.98657E+00 3.49999E-01
 -1        85-9.50000E-01 5.98657E+00 1.70000E+00
 -1        86 9.50000E-01 9.21869E+00 3.49999E-01
 -1        87 9.50000E-01 9.21869E+00 1.70000E+00
 -1        88 9.50000E-01 5.98657E+00 1.70000E+00
 -1        89-9.50000E-01 9.21869E+00 3.49999E-01
 -1        90-9.50000E-01 9.21869E+00 1.70000E+00
 -1        91-1.44535E+00 2.24815E+00 3.49999E-01
 -1        92-1.41328E+00 5.89442E+00 1.70000E+00
 -1        93-1.44535E+00 2.24815E+00 1.70000E+00
 -1        94-1.85212E+00 5.71264E+00 1.70000E+00
 -1        95-2.65016E+00 8.88051E+00 1.70000E+00
 -1        96-2.72980E+00 5.34909E+00 1.70000E+00
 -1        97-3.96668E+00 8.33519E+00 1.70000E+00
 -1        98-3.16865E+00 5.16732E+00 1.70000E+00
 -1        99-4.37345E+00 1.17997E+01 1.70000E+00
 -1       100-4.40553E+00 8.15341E+00 1.70000E+00
 -1       101-4.37345E+00 1.17997E+01 3.49999E-01
 -1       102-5.25114E+00 1.14361E+01 1.70000E+00
 -1       103-5.67665E-01 2.61170E+00 1.70000E+00
 -1       104-3.08900E+00 8.69874E+00 1.70000E+00
 -1       105-3.08900E+00 8.69874E+00 3.49999E-01
 -1       106-1.85212E+00 5.71264E+00 3.49999E-01
 -1       107-3.16865E+00 5.16732E+00 3.49999E-01
 -1       108-2.19566E+00 1.52391E+00 1.70000E+00
 -1       109-6.18273E+00 6.85448E+00 1.70000E+00
 -1       110-6.85448E+00 6.18273E+00 1.70000E+00
 -1       111-4.90489E+00 3.56139E+00 1.70000E+00
 -1       112-3.89727E+00 4.56902E+00 1.70000E+00
 -1       113-8.55608E+00 9.22784E+00 1.70000E+00
 -1       114-1.52391E+00 2.19566E+00 1.70000E+00
 -1       115-9.22784E+00 8.55608E+00 1.70000E+00
 -1       116-6.85448E+00 6.18273E+00 3.49999E-01
 -1       117-2.19566E+00 1.52391E+00 3.49999E-01
 -1       118-3.56139E+00 4.90489E+00 1.70000E+00
 -1       119-3.89727E+00 4.56902E+00 3.49999E-01
 -1       120-4.56902E+00 3.89727E+00 3.49999E-01
 -1       121-4.56902E+00 3.89727E+00 1.70000E+00
 -1       122-6.18273E+00 6.85448E+00 3.49999E-01
 -1       123-5.84685E+00 7.19035E+00 1.70000E+00
 -1       124-5.84685E+00 7.19035E+00 3.49999E-01
 -1       125-4.90489E+00 3.56139E+00 3.49999E-01
 -1       126-7.19035E+00 5.84685E+00 1.70000E+00
 -1       127-2.24815E+00 1.44535E+00 1.70000E+00
 -1       128-1.17997E+01 4.37345E+00 1.70000E+00
 -1       129-8.15341E+00 4.40553E+00 1.70000E+00
 -1       130-5.34909E+00 2.72980E+00 1.70000E+00
 -1       131-8.33519E+00 3.96668E+00 1.70000E+00
 -1       132-2.61170E+00 5.67665E-01 1.70000E+00
 -1       133-1.14361E+01 5.25114E+00 3.49999E-01
 -1       134-5.34909E+00 2.72980E+00 3.49999E-01
 -1       135-1.14361E+01 5.25114E+00 1.70000E+00
 -1       136-8.69874E+00 3.08900E+00 3.49999E-01
 -1       137-5.16732E+00 3.16865E+00 1.70000E+00
 -1       138-5.71264E+00 1.85212E+00 1.70000E+00
 -1       139-5.71264E+00 1.85212E+00 3.49999E-01
 -1       140-5.89442E+00 1.41328E+00 3.49999E-01
 -1       141-8.33519E+00 3.96668E+00 3.49999E-01
 -1       142-8.88051E+00 2.65016E+00 3.49999E-01
 -1       143-8.69874E+00 3.08900E+00 1.70000E+00
 -1       144-8.88051E+00 2.65016E+00 1.70000E+00
 -1       145-5.89442E+00 1.41328E+00 1.70000E+00
 -1       146-2.63013E+00-4.74999E-01 1.70000E+00
 -1       147-1.25751E+01-4.74999E-01 1.70000E+00
 -1       148-5.98657E+00 4.74999E-01 1.70000E+00
 -1       149-5.98657E+00-4.74999E-01 1.70000E+00
 -1       150-9.21869E+00 4.74999E-01 1.70000E+00
 -1       151-5.98657E+00 9.50000E-01 1.70000E+00
 -1       152-9.21869E+00-4.74999E-01 1.70000E+00
 -1       153-5.98657E+00-9.50000E-01 1.70000E+00
 -1       154-2.63013E+00 4.74999E-01 1.70000E+00
 -1       155-1.25751E+01 4.74999E-01 1.70000E+00
 -1       156-5.98657E+00 4.74999E-01 3.49999E-01
 -1       157-9.21869E+00 4.74999E-01 3.49999E-01
 -1       158-5.98657E+00-4.74999E-01 3.49999E-01
 -1       159-9.21869E+00 9.50000E-01 1.70000E+00
 -1       160-9.21869E+00-4.74999E-01 3.49999E-01
 -1       161-9.21869E+00 9.50000E-01 3.49999E-01
 -1       162-9.21869E+00-9.50000E-01 1.70000E+00
 -1       163-2.61170E+00-5.67665E-01 1.70000E+00
 -1       164-5.34909E+00-2.72980E+00 1.70000E+00
 -1       165-5.16732E+00-3.16865E+00 1.70000E+00
 -1       166-8.15341E+00-4.40553E+00 1.70000E+00
 -1       167-8.33519E+00-3.96668E+00 1.70000E+00
 -1       168-5.89442E+00-1.41328E+00 1.70000E+00
 -1       169-8.88051E+00-2.65016E+00 1.70000E+00
 -1       170-1.17997E+01-4.37345E+00 1.70000E+00
 -1       171-1.14361E+01-5.25114E+00 1.70000E+00
 -1       172-5.71264E+00-1.85212E+00 1.70000E+00
 -1       173-8.69874E+00-3.08900E+00 3.49999E-01
 -1       174-8.69874E+00-3.08900E+00 1.70000E+00
 -1       175-8.33519E+00-3.96668E+00 3.49999E-01
 -1       176-2.24815E+00-1.44535E+00 1.70000E+00
 -1       177-5.34909E+00-2.72980E+00 3.49999E-01
 -1       178-5.16732E+00-3.16865E+00 3.49999E-01
 -1       179-1.52391E+00-2.19566E+00 1.70000E+00
 -1       180-2.19566E+00-1.52391E+00 1.70000E+00
 -1       181-4.90489E+00-3.56139E+00 1.70000E+00
 -1       182-5.84685E+00-7.19035E+00 1.70000E+00
 -1       183-7.19035E+00-5.84685E+00 1.70000E+00
 -1       184-6.18273E+00-6.85448E+00 1.70000E+00
 -1       185-8.55608E+00-9.22784E+00 3.49999E-01
 -1       186-8.55608E+00-9.22784E+00 1.70000E+00
 -1       187-4.56902E+00-3.89727E+00 3.49999E-01
 -1       188-6.85448E+00-6.18273E+00 1.70000E+00
 -1       189-9.22784E+00-8.55608E+00 1.70000E+00
 -1       190-6.18273E+00-6.85448E+00 3.49999E-01
 -1       191-1.52391E+00-2.19566E+00 3.49999E-01
 -1       192-3.89727E+00-4.56902E+00 1.70000E+00
 -1       193-3.89727E+00-4.56902E+00 3.49999E-01
 -1       194-4.56902E+00-3.89727E+00 1.70000E+00
 -1       195-3.56139E+00-4.90489E+00 3.49999E-01
 -1       196-6.85448E+00-6.18273E+00 3.49999E-01
 -1       197-5.84685E+00-7.19035E+00 3.49999E-01
 -1       198-3.56139E+00-4.90489E+00 1.70000E+00
 -1       199-1.44535E+00-2.24815E+00 3.49999E-01
 -1       200-3.16865E+00-5.16732E+00 1.70000E+00
 -1       201-1.85212E+00-5.71264E+00 1.70000E+00
 -1       202-5.67665E-01-2.61170E+00 1.70000E+00
 -1       203-2.72980E+00-5.34909E+00 1.70000E+00
 -1       204-1.44535E+00-2.24815E+00 1.70000E+00
 -1       205-3.08900E+00-8.69874E+00 1.70000E+00
 -1       206-4.37345E+00-1.17997E+01 1.70000E+00
 -1       207-1.41328E+00-5.89442E+00 1.70000E+00
 -1       208-5.25114E+00-1.14361E+01 3.49999E-01
 -1       209-3.96668E+00-8.33519E+00 1.70000E+00
 -1       210-5.25114E+00-1.14361E+01 1.70000E+00
 -1       211-1.85212E+00-5.71264E+00 3.49999E-01
 -1       212-1.41328E+00-5.89442E+00 3.49999E-01
 -1       213-2.65016E+00-8.88051E+00 1.70000E+00
 -1       214-3.16865E+00-5.16732E+00 3.49999E-01
 -1       215-4.40553E+00-8.15341E+00 1.70000E+00
 -1       216-2.65016E+00-8.88051E+00 3.49999E-01
 -1       217-4.74999E-01-2.63013E+00 1.70000E+00
 -1       218-4.74999E-01-5.98657E+00 1.70000E+00
 -1       219 4.74999E-01-2.63013E+00 1.70000E+00
 -1       220 4.74999E-01-9.21869E+00 1.70000E+00
 -1       221-4.74999E-01-1.25751E+01 1.70000E+00
 -1       222 4.74999E-01-1.25751E+01 1.70000E+00
 -1       223-4.74999E-01-9.21869E+00 3.49999E-01
 -1       224-4.74999E-01-1.25751E+01 3.49999E-01
 -1       225 4.74999E-01-9.21869E+00 3.49999E-01
 -1       226 4.74999E-01-2.63013E+00 3.49999E-01
 -1       227 4.74999E-01-5.98657E+00 1.70000E+00
 -1       228-4.74999E-01-5.98657E+00 3.49999E-01
 -1       229-9.50000E-01-5.98657E+00 1.70000E+00
 -1       230 4.74999E-01-5.98657E+00 3.49999E-01
 -1       231-4.74999E-01-9.21869E+00 1.70000E+00
 -1       232-9.50000E-01-9.21869E+00 1.70000E+00
 -1       233 9.50000E-01-9.21869E+00 1.70000E+00
 -1       234 9.50000E-01-5.98657E+00 1.70000E+00
 -1       235 4.37345E+00-1.17997E+01 1.70000E+00
 -1       236 5.25114E+00-1.14361E+01 1.70000E+00
 -1       237 3.16865E+00-5.16732E+00 1.70000E+00
 -1       238 3.96668E+00-8.33519E+00 1.70000E+00
 -1       239 3.08900E+00-8.69874E+00 1.70000E+00
 -1       240 1.85212E+00-5.71264E+00 1.70000E+00
 -1       241 1.44535E+00-2.24815E+00 1.70000E+00
 -1       242 2.65016E+00-8.88051E+00 1.70000E+00
 -1       243 5.25114E+00-1.14361E+01 3.49999E-01
 -1       244 5.67665E-01-2.61170E+00 3.49999E-01
 -1       245 5.67665E-01-2.61170E+00 1.70000E+00
 -1       246 4.37345E+00-1.17997E+01 3.49999E-01
 -1       247 2.72980E+00-5.34909E+00 1.70000E+00
 -1       248 1.85212E+00-5.71264E+00 3.49999E-01
 -1       249 1.41328E+00-5.89442E+00 1.70000E+00
 -1       250 2.65016E+00-8.88051E+00 3.49999E-01
 -1       251 3.96668E+00-8.33519E+00 3.49999E-01
 -1       252 1.41328E+00-5.89442E+00 3.49999E-01
 -1       253 4.40553E+00-8.15341E+00 1.70000E+00
 -1       254 2.19566E+00-1.52391E+00 1.70000E+00
 -1       255 7.19035E+00-5.84685E+00 1.70000E+00
 -1       256 6.85448E+00-6.18273E+00 1.70000E+00
 -1       257 8.55608E+00-9.22784E+00 1.70000E+00
 -1       258 9.22784E+00-8.55608E+00 1.70000E+00
 -1       259 3.89727E+00-4.56902E+00 3.49999E-01
 -1       260 1.52391E+00-2.19566E+00 1.70000E+00
 -1       261 8.55608E+00-9.22784E+00 3.49999E-01
 -1       262 6.18273E+00-6.85448E+00 1.70000E+00
 -1       263 6.85448E+00-6.18273E+00 3.49999E-01
 -1       264 4.56902E+00-3.89727E+00 1.70000E+00
 -1       265 3.89727E+00-4.56902E+00 1.70000E+00
 -1       266 3.56139E+00-4.90489E+00 3.49999E-01
 -1       267 4.90489E+00-3.56139E+00 1.70000E+00
 -1       268 6.18273E+00-6.85448E+00 3.49999E-01
 -1       269 5.84685E+00-7.19035E+00 1.70000E+00
 -1       270 7.19035E+00-5.84685E+00 3.49999E-01
 -1       271 3.56139E+00-4.90489E+00 1.70000E+00
 -1       272 5.84685E+00-7.19035E+00 3.49999E-01
 -1       273 4.90489E+00-3.56139E+00 3.49999E-01
 -1       274 2.61170E+00-5.67665E-01 3.49999E-01
 -1       275 2.61170E+00-5.67665E-01 1.70000E+00
 -1       276 2.24815E+00-1.44535E+00 1.70000E+00
 -1       277 5.71264E+00-1.85212E+00 1.70000E+00
 -1       278 8.15341E+00-4.40553E+00 1.70000E+00
 -1       279 5.16732E+00-3.16865E+00 1.70000E+00
 -1       280 1.17997E+01-4.37345E+00 1.70000E+00
 -1       281 8.69874E+00-3.08900E+00 1.70000E+00
 -1       282 1.14361E+01-5.25114E+00 1.70000E+00
 -1       283 5.34909E+00-2.72980E+00 1.70000E+00
 -1       284 5.34909E+00-2.72980E+00 3.49999E-01
 -1       285 5.16732E+00-3.16865E+00 3.49999E-01
 -1       286 5.71264E+00-1.85212E+00 3.49999E-01
 -1       287 8.33519E+00-3.96668E+00 3.49999E-01
 -1       288 8.33519E+00-3.96668E+00 1.70000E+00
 -1       289 8.88051E+00-2.65016E+00 1.70000E+00
 -1       290 8.69874E+00-3.08900E+00 3.49999E-01
 -1       291 8.88051E+00-2.65016E+00 3.49999E-01
 -1       292 5.89442E+00-1.41328E+00 1.70000E+00
 -1       293 9.44469E+00 1.41350E+01 3.49999E-01
 -1       294 1.70000E+01 0.00000E+00-3.49999E-01
 -1       295-6.50562E+00-1.57060E+01-3.49999E-01
 -1       296 1.57060E+01 6.50562E+00-3.49999E-01
 -1       297-1.41350E+01 9.44469E+00 3.49999E-01
 -1       298-1.57060E+01 6.50562E+00-3.49999E-01
 -1       299 1.41350E+01-9.44469E+00 3.49999E-01
 -1       300 1.20208E+01-1.20208E+01-3.49999E-01
 -1       301-1.57060E+01-6.50562E+00 3.49999E-01
 -1       302 6.50562E+00 1.57060E+01 3.49999E-01
 -1       303 3.31653E+00 1.66733E+01-3.49999E-01
 -1       304 3.31653E+00 1.66733E+01 3.49999E-01
 -1       305 6.50562E+00 1.57060E+01-3.49999E-01
 -1       306-1.66733E+01 3.31653E+00 3.49999E-01
 -1       307-1.20208E+01 1.20208E+01-3.49999E-01
 -1       308-3.31653E+00 1.66733E+01 3.49999E-01
 -1       309 0.00000E+00 1.70000E+01-3.49999E-01
 -1       310-3.31653E+00 1.66733E+01-3.49999E-01
 -1       311-1.20208E+01 1.20208E+01 3.49999E-01
 -1       312-9.44469E+00 1.41350E+01-3.49999E-01
 -1       313 1.66733E+01 3.31653E+00-3.49999E-01
 -1       314 1.70000E+01 0.00000E+00 3.49999E-01
 -1       315 9.44469E+00-1.41350E+01 3.49999E-01
 -1       316 1.57060E+01-6.50562E+00-3.49999E-01
 -1       317 1.66733E+01-3.31653E+00-3.49999E-01
 -1       318 9.44469E+00-1.41350E+01-3.49999E-01
 -1       319 1.41350E+01-9.44469E+00-3.49999E-01
 -1       320 1.41350E+01 9.44469E+00-3.49999E-01
 -1       321 1.20208E+01 1.20208E+01-3.49999E-01
 -1       322 9.44469E+00 1.41350E+01-3.49999E-01
 -1       323-3.31653E+00-1.66733E+01-3.49999E-01
 -1       324-6.50562E+00 1.57060E+01-3.49999E-01
 -1       325-1.41350E+01-9.44469E+00-3.49999E-01
 -1       326-1.41350E+01 9.44469E+00-3.49999E-01
 -1       327-1.66733E+01 3.31653E+00-3.49999E-01
 -1       328-1.66733E+01-3.31653E+00-3.49999E-01
 -1       329-1.70000E+01 0.00000E+00-3.49999E-01
 -1       330-1.25751E+01 4.74999E-01 3.49999E-01
 -1       331-1.17997E+01 4.37345E+00 3.49999E-01
 -1       332-9.21869E+00-9.50000E-01 3.49999E-01
 -1       333-1.25751E+01-4.74999E-01 3.49999E-01
 -1       334-1.66733E+01-3.31653E+00 3.49999E-01
 -1       335-1.70000E+01 0.00000E+00 3.49999E-01
 -1       336-8.15341E+00 4.40553E+00 3.49999E-01
 -1       337-7.19035E+00 5.84685E+00 3.49999E-01
 -1       338-9.22784E+00 8.55608E+00 3.49999E-01
 -1       339-9.22784E+00-8.55608E+00 3.49999E-01
 -1       340-8.15341E+00-4.40553E+00 3.49999E-01
 -1       341-1.20208E+01-1.20208E+01 3.49999E-01
 -1       342-1.14361E+01-5.25114E+00 3.49999E-01
 -1       343-1.17997E+01-4.37345E+00 3.49999E-01
 -1       344-5.16732E+00 3.16865E+00 3.49999E-01
 -1       345-3.96668E+00-8.33519E+00 3.49999E-01
 -1       346-7.19035E+00-5.84685E+00 3.49999E-01
 -1       347-4.90489E+00-3.56139E+00 3.49999E-01
 -1       348-3.96668E+00 8.33519E+00 3.49999E-01
 -1       349-5.25114E+00 1.14361E+01 3.49999E-01
 -1       350-3.56139E+00 4.90489E+00 3.49999E-01
 -1       351-4.40553E+00 8.15341E+00 3.49999E-01
 -1       352-2.61170E+00 5.67665E-01 3.49999E-01
 -1       353-5.98657E+00 9.50000E-01 3.49999E-01
 -1       354-2.63013E+00 4.74999E-01 3.49999E-01
 -1       355-2.19566E+00-1.52391E+00 3.49999E-01
 -1       356-2.24815E+00 1.44535E+00 3.49999E-01
 -1       357-2.72980E+00 5.34909E+00 3.49999E-01
 -1       358-1.52391E+00 2.19566E+00 3.49999E-01
 -1       359-9.50000E-01-5.98657E+00 3.49999E-01
 -1       360-5.67665E-01-2.61170E+00 3.49999E-01
 -1       361-2.72980E+00-5.34909E+00 3.49999E-01
 -1       362-2.24815E+00-1.44535E+00 3.49999E-01
 -1       363-2.63013E+00-4.74999E-01 3.49999E-01
 -1       364-2.61170E+00-5.67665E-01 3.49999E-01
 -1       365-5.71264E+00-1.85212E+00 3.49999E-01
 -1       366-5.98657E+00-9.50000E-01 3.49999E-01
 -1       367-8.88051E+00-2.65016E+00 3.49999E-01
 -1       368-5.89442E+00-1.41328E+00 3.49999E-01
 -1       369-4.40553E+00-8.15341E+00 3.49999E-01
 -1       370-9.50000E-01 5.98657E+00 3.49999E-01
 -1       371-4.74999E-01 2.63013E+00 3.49999E-01
 -1       372-5.67665E-01 2.61170E+00 3.49999E-01
 -1       373-1.41328E+00 5.89442E+00 3.49999E-01
 -1       374-4.74999E-01-2.63013E+00 3.49999E-01
 -1       375 4.74999E-01 9.21869E+00 3.49999E-01
 -1       376 9.50000E-01-5.98657E+00 3.49999E-01
 -1       377 5.67665E-01 2.61170E+00 3.49999E-01
 -1       378 4.74999E-01 5.98657E+00 3.49999E-01
 -1       379 2.24815E+00-1.44535E+00 3.49999E-01
 -1       380 4.56902E+00-3.89727E+00 3.49999E-01
 -1       381 1.52391E+00 2.19566E+00 3.49999E-01
 -1       382 2.19566E+00-1.52391E+00 3.49999E-01
 -1       383 4.40553E+00-8.15341E+00 3.49999E-01
 -1       384 3.56139E+00 4.90489E+00 3.49999E-01
 -1       385 3.89727E+00 4.56902E+00 3.49999E-01
 -1       386 5.89442E+00-1.41328E+00 3.49999E-01
 -1       387 2.61170E+00 5.67665E-01 3.49999E-01
 -1       388 2.24815E+00 1.44535E+00 3.49999E-01
 -1       389 5.98657E+00-9.50000E-01 3.49999E-01
 -1       390 1.20208E+01 1.20208E+01 3.49999E-01
 -1       391 9.22784E+00 8.55608E+00 3.49999E-01
 -1       392 5.25114E+00 1.14361E+01 3.49999E-01
 -1       393 8.55608E+00 9.22784E+00 3.49999E-01
 -1       394 4.37345E+00 1.17997E+01 3.49999E-01
 -1       395 2.65016E+00 8.88051E+00 3.49999E-01
 -1       396 3.08900E+00 8.69874E+00 3.49999E-01
 -1       397 0.00000E+00 1.70000E+01 3.49999E-01
 -1       398-4.74999E-01 1.25751E+01 3.49999E-01
 -1       399 4.74999E-01 1.25751E+01 3.49999E-01
 -1       400-2.65016E+00 8.88051E+00 3.49999E-01
 -1       401-6.50562E+00 1.57060E+01 3.49999E-01
 -1       402-9.44469E+00 1.41350E+01 3.49999E-01
 -1       403-8.55608E+00 9.22784E+00 3.49999E-01
 -1       404 1.41350E+01 9.44469E+00 3.49999E-01
 -1       405 7.19035E+00 5.84685E+00 3.49999E-01
 -1       406 6.85448E+00 6.18273E+00 3.49999E-01
 -1       407 1.66733E+01 3.31653E+00 3.49999E-01
 -1       408 1.57060E+01 6.50562E+00 3.49999E-01
 -1       409 1.66733E+01-3.31653E+00 3.49999E-01
 -1       410 1.25751E+01-4.74999E-01 3.49999E-01
 -1       411 1.17997E+01 4.37345E+00 3.49999E-01
 -1       412 9.21869E+00 9.50000E-01 3.49999E-01
 -1       413 9.21869E+00 4.74999E-01 3.49999E-01
 -1       414 1.57060E+01-6.50562E+00 3.49999E-01
 -1       415 9.21869E+00-9.50000E-01 3.49999E-01
 -1       416 1.17997E+01-4.37345E+00 3.49999E-01
 -1       417 1.20208E+01-1.20208E+01 3.49999E-01
 -1       418 1.14361E+01-5.25114E+00 3.49999E-01
 -1       419 9.22784E+00-8.55608E+00 3.49999E-01
 -1       420 8.15341E+00-4.40553E+00 3.49999E-01
 -1       421 3.08900E+00-8.69874E+00 3.49999E-01
 -1       422 9.50000E-01-9.21869E+00 3.49999E-01
 -1       423 4.74999E-01-1.25751E+01 3.49999E-01
 -1       424-4.37345E+00-1.17997E+01 3.49999E-01
 -1       425-9.50000E-01-9.21869E+00 3.49999E-01
 -1       426-3.08900E+00-8.69874E+00 3.49999E-01
 -1       427-3.31653E+00-1.66733E+01 3.49999E-01
 -1       428 0.00000E+00-1.70000E+01 3.49999E-01
 -1       429-9.44469E+00-1.41350E+01 3.49999E-01
 -1       430 5.98657E+00 9.50000E-01 3.49999E-01
 -1       431 5.98657E+00 4.74999E-01 3.49999E-01
 -1       432 3.16865E+00 5.16732E+00 3.49999E-01
 -1       433 3.16865E+00-5.16732E+00 3.49999E-01
 -1       434 1.44535E+00-2.24815E+00 3.49999E-01
 -1       435 2.72980E+00-5.34909E+00 3.49999E-01
 -1       436 1.52391E+00-2.19566E+00 3.49999E-01
 -1       437 1.44535E+00 2.24815E+00 3.49999E-01
 -1       438-1.57060E+01 6.50562E+00 3.49999E-01
 -1       439 0.00000E+00-1.70000E+01-3.49999E-01
 -1       440 3.31653E+00-1.66733E+01-3.49999E-01
 -1       441 6.50562E+00-1.57060E+01 3.49999E-01
 -1       442 3.31653E+00-1.66733E+01 3.49999E-01
 -1       443 6.50562E+00-1.57060E+01-3.49999E-01
 -1       444-9.44469E+00-1.41350E+01-3.49999E-01
 -1       445-6.50562E+00-1.57060E+01 3.49999E-01
 -1       446-1.57060E+01-6.50562E+00-3.49999E-01
 -1       447-1.41350E+01-9.44469E+00 3.49999E-01
 -1       448-1.20208E+01-1.20208E+01-3.49999E-01
 -1       449 2.63013E+00 4.74999E-01 1.02500E+00
 -1       450 2.63013E+00-4.74999E-01 1.02500E+00
 -1       451 4.30835E+00 4.74999E-01 1.70000E+00
 -1       452 4.30835E+00-4.74999E-01 1.70000E+00
 -1       453 7.60263E+00 9.50000E-01 1.70000E+00
 -1       454 7.60263E+00-9.50000E-01 1.70000E+00
 -1       455 1.08969E+01 4.74999E-01 1.70000E+00
 -1       456 1.08969E+01-4.74999E-01 1.70000E+00
 -1       457 1.25751E+01 4.74999E-01 1.02500E+00
 -1       458 1.25751E+01-4.74999E-01 1.02500E+00
 -1       459 4.30835E+00-4.74999E-01 3.49999E-01
 -1       460 5.98657E+00-4.74999E-01 1.02500E+00
 -1       461 9.21869E+00-4.74999E-01 1.02500E+00
 -1       462 1.08969E+01-4.74999E-01 3.49999E-01
 -1       463 1.08969E+01 4.74999E-01 3.49999E-01
 -1       464 9.21869E+00 4.74999E-01 1.02500E+00
 -1       465 5.98657E+00 4.74999E-01 1.02500E+00
 -1       466 4.30835E+00 4.74999E-01 3.49999E-01
 -1       467 5.98657E+00-9.50000E-01 1.02500E+00
 -1       468 5.98657E+00 9.50000E-01 1.02500E+00
 -1       469 9.21869E+00-9.50000E-01 1.02500E+00
 -1       470 9.21869E+00 9.50000E-01 1.02500E+00
 -1       471 7.60263E+00-9.50000E-01 3.49999E-01
 -1       472 7.60263E+00 9.50000E-01 3.49999E-01
 -1       473 2.24815E+00 1.44535E+00 1.02500E+00
 -1       474 2.61170E+00 5.67665E-01 1.02500E+00
 -1       475 1.02492E+01 3.73123E+00 1.70000E+00
 -1       476 9.88564E+00 4.60891E+00 1.70000E+00
 -1       477 7.38747E+00 2.03172E+00 1.70000E+00
 -1       478 6.66037E+00 3.78709E+00 1.70000E+00
 -1       479 4.16217E+00 1.20989E+00 1.70000E+00
 -1       480 3.79862E+00 2.08757E+00 1.70000E+00
 -1       481 1.14361E+01 5.25114E+00 1.02500E+00
 -1       482 1.17997E+01 4.37345E+00 1.02500E+00
 -1       483 4.16217E+00 1.20989E+00 3.49999E-01
 -1       484 5.71264E+00 1.85212E+00 1.02500E+00
 -1       485 8.69874E+00 3.08900E+00 1.02500E+00
 -1       486 1.02492E+01 3.73123E+00 3.49999E-01
 -1       487 9.88564E+00 4.60891E+00 3.49999E-01
 -1       488 8.33519E+00 3.96668E+00 1.02500E+00
 -1       489 5.34909E+00 2.72980E+00 1.02500E+00
 -1       490 3.79862E+00 2.08757E+00 3.49999E-01
 -1       491 5.89442E+00 1.41328E+00 1.02500E+00
 -1       492 5.16732E+00 3.16865E+00 1.02500E+00
 -1       493 8.88051E+00 2.65016E+00 1.02500E+00
 -1       494 8.15341E+00 4.40553E+00 1.02500E+00
 -1       495 7.38747E+00 2.03172E+00 3.49999E-01
 -1       496 6.66037E+00 3.78709E+00 3.49999E-01
 -1       497 1.52391E+00 2.19566E+00 1.02500E+00
 -1       498 2.19566E+00 1.52391E+00 1.02500E+00
 -1       499 8.04116E+00 7.36940E+00 1.70000E+00
 -1       500 7.36940E+00 8.04116E+00 1.70000E+00
 -1       501 6.04762E+00 4.70412E+00 1.70000E+00
 -1       502 4.70412E+00 6.04762E+00 1.70000E+00
 -1       503 3.38234E+00 2.71059E+00 1.70000E+00
 -1       504 2.71059E+00 3.38234E+00 1.70000E+00
 -1       505 8.55608E+00 9.22784E+00 1.02500E+00
 -1       506 9.22784E+00 8.55608E+00 1.02500E+00
 -1       507 4.56902E+00 3.89727E+00 1.02500E+00
 -1       508 3.38234E+00 2.71059E+00 3.49999E-01
 -1       509 6.85448E+00 6.18273E+00 1.02500E+00
 -1       510 8.04116E+00 7.36940E+00 3.49999E-01
 -1       511 7.36940E+00 8.04116E+00 3.49999E-01
 -1       512 6.18273E+00 6.85448E+00 1.02500E+00
 -1       513 3.89727E+00 4.56902E+00 1.02500E+00
 -1       514 2.71059E+00 3.38234E+00 3.49999E-01
 -1       515 4.90489E+00 3.56139E+00 1.02500E+00
 -1       516 3.56139E+00 4.90489E+00 1.02500E+00
 -1       517 7.19035E+00 5.84685E+00 1.02500E+00
 -1       518 5.84685E+00 7.19035E+00 1.02500E+00
 -1       519 6.04762E+00 4.70412E+00 3.49999E-01
 -1       520 4.70412E+00 6.04762E+00 3.49999E-01
 -1       521 5.67665E-01 2.61170E+00 1.02500E+00
 -1       522 1.44535E+00 2.24815E+00 1.02500E+00
 -1       523 2.03172E+00 7.38747E+00 1.70000E+00
 -1       524 4.60891E+00 9.88564E+00 1.70000E+00
 -1       525 3.73123E+00 1.02492E+01 1.70000E+00
 -1       526 2.08757E+00 3.79862E+00 1.70000E+00
 -1       527 1.20989E+00 4.16217E+00 1.70000E+00
 -1       528 3.78709E+00 6.66037E+00 1.70000E+00
 -1       529 5.25114E+00 1.14361E+01 1.02500E+00
 -1       530 4.37345E+00 1.17997E+01 1.02500E+00
 -1       531 2.72980E+00 5.34909E+00 1.02500E+00
 -1       532 2.08757E+00 3.79862E+00 3.49999E-01
 -1       533 3.96668E+00 8.33519E+00 1.02500E+00
 -1       534 4.60891E+00 9.88564E+00 3.49999E-01
 -1       535 3.73123E+00 1.02492E+01 3.49999E-01
 -1       536 3.08900E+00 8.69874E+00 1.02500E+00
 -1       537 1.85212E+00 5.71264E+00 1.02500E+00
 -1       538 1.20989E+00 4.16217E+00 3.49999E-01
 -1       539 3.16865E+00 5.16732E+00 1.02500E+00
 -1       540 1.41328E+00 5.89442E+00 1.02500E+00
 -1       541 4.40553E+00 8.15341E+00 1.02500E+00
 -1       542 2.65016E+00 8.88051E+00 1.02500E+00
 -1       543 3.78709E+00 6.66037E+00 3.49999E-01
 -1       544 2.03172E+00 7.38747E+00 3.49999E-01
 -1       545-4.74999E-01 2.63013E+00 1.02500E+00
 -1       546 4.74999E-01 2.63013E+00 1.02500E+00
 -1       547-9.50000E-01 7.60263E+00 1.70000E+00
 -1       548 4.74999E-01 1.08969E+01 1.70000E+00
 -1       549-4.74999E-01 1.08969E+01 1.70000E+00
 -1       550 4.74999E-01 4.30835E+00 1.70000E+00
 -1       551-4.74999E-01 4.30835E+00 1.70000E+00
 -1       552 9.50000E-01 7.60263E+00 1.70000E+00
 -1       553 4.74999E-01 1.25751E+01 1.02500E+00
 -1       554-4.74999E-01 1.25751E+01 1.02500E+00
 -1       555 4.74999E-01 5.98657E+00 1.02500E+00
 -1       556 4.74999E-01 4.30835E+00 3.49999E-01
 -1       557 4.74999E-01 9.21869E+00 1.02500E+00
 -1       558 4.74999E-01 1.08969E+01 3.49999E-01
 -1       559-4.74999E-01 1.08969E+01 3.49999E-01
 -1       560-4.74999E-01 9.21869E+00 1.02500E+00
 -1       561-4.74999E-01 5.98657E+00 1.02500E+00
 -1       562-4.74999E-01 4.30835E+00 3.49999E-01
 -1       563 9.50000E-01 5.98657E+00 1.02500E+00
 -1       564-9.50000E-01 5.98657E+00 1.02500E+00
 -1       565 9.50000E-01 9.21869E+00 1.02500E+00
 -1       566-9.50000E-01 9.21869E+00 1.02500E+00
 -1       567 9.50000E-01 7.60263E+00 3.49999E-01
 -1       568-9.50000E-01 7.60263E+00 3.49999E-01
 -1       569-1.44535E+00 2.24815E+00 1.02500E+00
 -1       570-5.67665E-01 2.61170E+00 1.02500E+00
 -1       571-2.03172E+00 7.38747E+00 1.70000E+00
 -1       572-1.20989E+00 4.16217E+00 1.70000E+00
 -1       573-2.08757E+00 3.79862E+00 1.70000E+00
 -1       574-3.73123E+00 1.02492E+01 1.70000E+00
 -1       575-4.60891E+00 9.88564E+00 1.70000E+00
 -1       576-3.78709E+00 6.66037E+00 1.70000E+00
 -1       577-4.37345E+00 1.17997E+01 1.02500E+00
 -1       578-5.25114E+00 1.14361E+01 1.02500E+00
 -1       579-1.85212E+00 5.71264E+00 1.02500E+00
 -1       580-1.20989E+00 4.16217E+00 3.49999E-01
 -1       581-3.08900E+00 8.69874E+00 1.02500E+00
 -1       582-3.73123E+00 1.02492E+01 3.49999E-01