    1C
    1U meshsolid_t.inp                                                  
    1UUSER                                                              
    1UDATE              02.july.2016                                    
    1UTIME              20:00:41                                        
    1UHOST                                                              
    1UPGM               CalculiX                                        
    1UVERSION           Version 2.10                             
    1UCOMPILETIME       Sa 5. Mär 12:23:33 CET 2016                    
    1UDIR                                                               
    1UDBN                                                               
    1UMAT    1PDMS                                                      
    2C                          2775                                     1
 -1         1 3.35263E+00 5.00000E-01 1.70000E+00
 -1         2 6.54013E+00-5.00000E-01 1.70000E+00
 -1         3 6.54013E+00 5.00000E-01 1.70000E+00
 -1         4 8.66513E+00-5.00000E-01 1.70000E+00
 -1         5 1.18526E+01 5.00000E-01 1.70000E+00
 -1         6 1.18526E+01 5.00000E-01 3.49999E-01
 -1         7 3.35263E+00-5.00000E-01 1.70000E+00
 -1         8 1.18526E+01-5.00000E-01 1.70000E+00
 -1         9 8.66513E+00-5.00000E-01 3.49999E-01
 -1        10 6.54013E+00 5.00000E-01 3.49999E-01
 -1        11 6.54013E+00-1.00000E+00 1.70000E+00
 -1        12 6.54013E+00 1.00000E+00 3.49999E-01
 -1        13 8.66513E+00-1.00000E+00 3.49999E-01
 -1        14 8.66513E+00 1.00000E+00 1.70000E+00
 -1        15 8.66513E+00 5.00000E-01 1.70000E+00
 -1        16 8.66513E+00 5.00000E-01 3.49999E-01
 -1        17 8.66513E+00-1.00000E+00 1.70000E+00
 -1        18 8.66513E+00 1.00000E+00 3.49999E-01
 -1        19 6.54013E+00 1.00000E+00 1.70000E+00
 -1        20 2.94561E+00 1.67735E+00 1.70000E+00
 -1        21 8.26062E+00 2.66397E+00 1.70000E+00
 -1        22 8.44124E+00 2.19773E+00 1.70000E+00
 -1        23 6.45973E+00 1.43010E+00 1.70000E+00
 -1        24 5.91787E+00 2.82880E+00 1.70000E+00
 -1        25 3.30686E+00 7.44874E-01 1.70000E+00
 -1        26 1.12329E+01 3.81543E+00 1.70000E+00
 -1        27 6.27911E+00 1.89633E+00 1.70000E+00
 -1        28 8.26062E+00 2.66397E+00 3.49999E-01
 -1        29 7.89937E+00 3.59644E+00 1.70000E+00
 -1        30 1.08716E+01 4.74790E+00 1.70000E+00
 -1        31 7.89937E+00 3.59644E+00 3.49999E-01
 -1        32 5.91787E+00 2.82880E+00 3.49999E-01
 -1        33 5.73725E+00 3.29504E+00 1.70000E+00
 -1        34 7.71875E+00 4.06268E+00 1.70000E+00
 -1        35 6.45973E+00 1.43010E+00 3.49999E-01
 -1        36 2.81447E+00 1.88915E+00 3.49999E-01
 -1        37 2.14078E+00 2.62816E+00 1.70000E+00
 -1        38 8.42235E+00 8.35457E+00 1.70000E+00
 -1        39 9.09605E+00 7.61556E+00 1.70000E+00
 -1        40 6.06676E+00 6.20717E+00 1.70000E+00
 -1        41 4.49637E+00 4.77556E+00 1.70000E+00
 -1        42 6.74046E+00 5.46816E+00 1.70000E+00
 -1        43 7.07730E+00 5.09865E+00 1.70000E+00
 -1        44 5.50691E+00 3.66705E+00 1.70000E+00
 -1        45 5.17006E+00 4.03655E+00 1.70000E+00
 -1        46 4.15952E+00 5.14507E+00 1.70000E+00
 -1        47 2.81447E+00 1.88915E+00 1.70000E+00
 -1        48 6.06676E+00 6.20717E+00 3.49999E-01
 -1        49 2.14078E+00 2.62816E+00 3.49999E-01
 -1        50 6.74046E+00 5.46816E+00 3.49999E-01
 -1        51 5.72991E+00 6.57667E+00 1.70000E+00
 -1        52 1.04681E+00 3.22402E+00 1.70000E+00
 -1        53 1.04681E+00 3.22402E+00 3.49999E-01
 -1        54 2.02002E+00 6.30022E+00 1.70000E+00
 -1        55 3.41480E+00 7.97958E+00 1.70000E+00
 -1        56 2.46761E+00 6.07735E+00 1.70000E+00
 -1        57 1.94198E+00 2.77828E+00 1.70000E+00
 -1        58 3.36277E+00 5.63162E+00 1.70000E+00
 -1        59 3.81035E+00 5.40875E+00 1.70000E+00
 -1        60 4.83559E+00 1.08329E+01 1.70000E+00
 -1        61 4.30996E+00 7.53384E+00 1.70000E+00
 -1        62 5.73075E+00 1.03872E+01 1.70000E+00
 -1        63 2.46761E+00 6.07735E+00 3.49999E-01
 -1        64 3.36277E+00 5.63162E+00 3.49999E-01
 -1        65 2.96722E+00 8.20245E+00 1.70000E+00
 -1        66 3.41480E+00 7.97958E+00 3.49999E-01
 -1        67 4.75754E+00 7.31097E+00 1.70000E+00
 -1        68 4.75754E+00 7.31097E+00 3.49999E-01
 -1        69 3.81035E+00 5.40875E+00 3.49999E-01
 -1        70 2.02002E+00 6.30022E+00 3.49999E-01
 -1        71-1.88525E-01 3.38446E+00 3.49999E-01
 -1        72-1.88525E-01 3.38446E+00 1.70000E+00
 -1        73 1.05580E-01 6.55837E+00 1.70000E+00
 -1        74 5.95756E-01 1.18482E+01 1.70000E+00
 -1        75 3.01650E-01 8.67430E+00 1.70000E+00
 -1        76 8.07209E-01 3.29220E+00 1.70000E+00
 -1        77 1.10131E+00 6.46610E+00 1.70000E+00
 -1        78 1.59149E+00 1.17559E+01 1.70000E+00
 -1        79 1.29738E+00 8.58203E+00 1.70000E+00
 -1        80 3.01650E-01 8.67430E+00 3.49999E-01
 -1        81 1.10131E+00 6.46610E+00 3.49999E-01
 -1        82-3.92287E-01 6.60450E+00 1.70000E+00
 -1        83 1.05580E-01 6.55837E+00 3.49999E-01
 -1        84 1.79525E+00 8.53590E+00 1.70000E+00
 -1        85-1.96217E-01 8.72044E+00 1.70000E+00
 -1        86 1.59918E+00 6.41996E+00 1.70000E+00
 -1        87-2.76271E+00 1.15370E+01 1.70000E+00
 -1        88-8.27966E-01 6.56413E+00 1.70000E+00
 -1        89-1.89041E+00 8.47118E+00 1.70000E+00
 -1        90-2.27070E+00 6.15363E+00 1.70000E+00
 -1        91-1.39840E+00 3.08782E+00 1.70000E+00
 -1        92-1.30888E+00 6.42730E+00 3.49999E-01
 -1        93-4.36578E-01 3.36148E+00 1.70000E+00
 -1        94-1.89041E+00 8.47118E+00 3.49999E-01
 -1        95-3.72454E+00 1.12633E+01 1.70000E+00
 -1        96-2.85224E+00 8.19751E+00 1.70000E+00
 -1        97-1.30888E+00 6.42730E+00 1.70000E+00
 -1        98-8.27966E-01 6.56413E+00 3.49999E-01
 -1        99-2.75162E+00 6.01680E+00 1.70000E+00
 -1       100-1.40950E+00 8.60801E+00 1.70000E+00
 -1       101-1.40950E+00 8.60801E+00 3.49999E-01
 -1       102-3.33315E+00 8.06068E+00 1.70000E+00
 -1       103-3.33315E+00 8.06068E+00 3.49999E-01
 -1       104-6.74380E+00 9.75992E+00 1.70000E+00
 -1       105-4.42389E+00 7.51756E+00 1.70000E+00
 -1       106-4.82290E+00 7.21624E+00 1.70000E+00
 -1       107-4.34032E+00 4.91782E+00 1.70000E+00
 -1       108-4.73933E+00 4.61650E+00 1.70000E+00
 -1       109-6.01993E+00 6.31229E+00 1.70000E+00
 -1       110-2.41942E+00 2.37414E+00 1.70000E+00
 -1       111-3.54230E+00 5.52045E+00 1.70000E+00
 -1       112-7.54181E+00 9.15729E+00 1.70000E+00
 -1       113-1.62140E+00 2.97677E+00 1.70000E+00
 -1       114-4.82290E+00 7.21624E+00 3.49999E-01
 -1       115-3.14329E+00 5.82177E+00 1.70000E+00
 -1       116-3.54230E+00 5.52045E+00 3.49999E-01
 -1       117-3.14329E+00 5.82177E+00 3.49999E-01
 -1       118-4.73933E+00 4.61650E+00 3.49999E-01
 -1       119-4.34032E+00 4.91782E+00 3.49999E-01
 -1       120-5.62092E+00 6.61361E+00 1.70000E+00
 -1       121-3.11368E+00 1.33982E+00 1.70000E+00
 -1       122-3.11368E+00 1.33982E+00 3.49999E-01
 -1       123-9.81409E+00 6.66471E+00 1.70000E+00
 -1       124-5.29732E+00 3.86804E+00 1.70000E+00
 -1       125-7.63046E+00 4.13650E+00 1.70000E+00
 -1       126-7.89368E+00 3.71139E+00 1.70000E+00
 -1       127-5.82375E+00 3.01783E+00 1.70000E+00
 -1       128-2.58725E+00 2.19004E+00 1.70000E+00
 -1       129-5.29732E+00 3.86804E+00 3.49999E-01
 -1       130-1.03405E+01 5.81450E+00 1.70000E+00
 -1       131-5.82375E+00 3.01783E+00 3.49999E-01
 -1       132-6.08696E+00 2.59272E+00 1.70000E+00
 -1       133-6.84081E+00 5.41182E+00 1.70000E+00
 -1       134-7.10403E+00 4.98671E+00 3.49999E-01
 -1       135-7.10403E+00 4.98671E+00 1.70000E+00
 -1       136-7.89368E+00 3.71139E+00 3.49999E-01
 -1       137-7.63046E+00 4.13650E+00 3.49999E-01
 -1       138-5.03410E+00 4.29315E+00 1.70000E+00
 -1       139-5.03410E+00 4.29315E+00 3.49999E-01
 -1       140-6.08696E+00 2.59272E+00 3.49999E-01
 -1       141-3.38742E+00 1.24558E-01 1.70000E+00
 -1       142-8.60947E+00 1.10073E+00 1.70000E+00
 -1       143-8.42572E+00 2.08370E+00 1.70000E+00
 -1       144-6.24502E+00 2.18472E+00 1.70000E+00
 -1       145-6.52065E+00 7.10259E-01 1.70000E+00
 -1       146-1.15589E+01 2.66940E+00 1.70000E+00
 -1       147-1.17427E+01 1.68643E+00 1.70000E+00
 -1       148-3.20367E+00 1.10753E+00 1.70000E+00
 -1       149-6.33690E+00 1.69323E+00 3.49999E-01
 -1       150-8.42572E+00 2.08370E+00 3.49999E-01
 -1       151-8.60947E+00 1.10073E+00 3.49999E-01
 -1       152-6.33690E+00 1.69323E+00 1.70000E+00
 -1       153-6.61252E+00 2.18773E-01 1.70000E+00
 -1       154-6.52065E+00 7.10259E-01 3.49999E-01
 -1       155-8.33384E+00 2.57519E+00 1.70000E+00
 -1       156-8.70134E+00 6.09241E-01 1.70000E+00
 -1       157-3.38742E+00-1.24558E-01 3.49999E-01
 -1       158-6.33690E+00-1.69323E+00 1.70000E+00
 -1       159-3.38742E+00-1.24558E-01 1.70000E+00
 -1       160-8.33384E+00-2.57519E+00 1.70000E+00
 -1       161-6.61252E+00-2.18773E-01 1.70000E+00
 -1       162-1.15589E+01-2.66940E+00 1.70000E+00
 -1       163-8.42572E+00-2.08370E+00 1.70000E+00
 -1       164-1.17427E+01-1.68643E+00 1.70000E+00
 -1       165-6.52065E+00-7.10259E-01 1.70000E+00
 -1       166-8.60947E+00-1.10073E+00 3.49999E-01
 -1       167-1.17427E+01-1.68643E+00 3.49999E-01
 -1       168-8.42572E+00-2.08370E+00 3.49999E-01
 -1       169-3.20367E+00-1.10753E+00 1.70000E+00
 -1       170-6.24502E+00-2.18472E+00 1.70000E+00
 -1       171-8.60947E+00-1.10073E+00 1.70000E+00
 -1       172-8.70134E+00-6.09241E-01 1.70000E+00
 -1       173-6.61252E+00-2.18773E-01 3.49999E-01
 -1       174-8.33384E+00-2.57519E+00 3.49999E-01
 -1       175-2.58725E+00-2.19004E+00 1.70000E+00
 -1       176-3.11368E+00-1.33982E+00 1.70000E+00
 -1       177-7.89368E+00-3.71139E+00 1.70000E+00
 -1       178-1.03405E+01-5.81450E+00 1.70000E+00
 -1       179-7.63046E+00-4.13650E+00 3.49999E-01
 -1       180-7.63046E+00-4.13650E+00 1.70000E+00
 -1       181-7.10403E+00-4.98671E+00 1.70000E+00
 -1       182-9.81409E+00-6.66471E+00 1.70000E+00
 -1       183-7.10403E+00-4.98671E+00 3.49999E-01
 -1       184-5.29732E+00-3.86804E+00 1.70000E+00
 -1       185-5.29732E+00-3.86804E+00 3.49999E-01
 -1       186-2.58725E+00-2.19004E+00 3.49999E-01
 -1       187-5.82375E+00-3.01783E+00 1.70000E+00
 -1       188-5.03410E+00-4.29315E+00 1.70000E+00
 -1       189-7.89368E+00-3.71139E+00 3.49999E-01
 -1       190-6.84081E+00-5.41182E+00 1.70000E+00
 -1       191-6.08696E+00-2.59272E+00 1.70000E+00
 -1       192-5.03410E+00-4.29315E+00 3.49999E-01
 -1       193-1.62140E+00-2.97677E+00 3.49999E-01
 -1       194-2.41942E+00-2.37414E+00 3.49999E-01
 -1       195-3.54230E+00-5.52045E+00 1.70000E+00
 -1       196-1.62140E+00-2.97677E+00 1.70000E+00
 -1       197-2.41942E+00-2.37414E+00 1.70000E+00
 -1       198-4.82290E+00-7.21624E+00 1.70000E+00
 -1       199-3.14329E+00-5.82177E+00 1.70000E+00
 -1       200-4.34032E+00-4.91782E+00 1.70000E+00
 -1       201-4.73933E+00-4.61650E+00 1.70000E+00
 -1       202-4.42389E+00-7.51756E+00 1.70000E+00
 -1       203-5.62092E+00-6.61361E+00 1.70000E+00
 -1       204-6.74380E+00-9.75992E+00 1.70000E+00
 -1       205-7.54181E+00-9.15729E+00 3.49999E-01
 -1       206-6.74380E+00-9.75992E+00 3.49999E-01
 -1       207-4.34032E+00-4.91782E+00 3.49999E-01
 -1       208-7.54181E+00-9.15729E+00 1.70000E+00
 -1       209-3.54230E+00-5.52045E+00 3.49999E-01
 -1       210-6.01993E+00-6.31229E+00 1.70000E+00
 -1       211-4.42389E+00-7.51756E+00 3.49999E-01
 -1       212-1.39840E+00-3.08782E+00 1.70000E+00
 -1       213-4.36578E-01-3.36148E+00 1.70000E+00
 -1       214-1.39840E+00-3.08782E+00 3.49999E-01
 -1       215-1.89041E+00-8.47118E+00 1.70000E+00
 -1       216-2.85224E+00-8.19751E+00 1.70000E+00
 -1       217-3.72454E+00-1.12633E+01 1.70000E+00
 -1       218-2.27070E+00-6.15363E+00 1.70000E+00
 -1       219-3.72454E+00-1.12633E+01 3.49999E-01
 -1       220-1.89041E+00-8.47118E+00 3.49999E-01
 -1       221-2.76271E+00-1.15370E+01 1.70000E+00
 -1       222-1.30888E+00-6.42730E+00 3.49999E-01
 -1       223-2.75162E+00-6.01680E+00 1.70000E+00
 -1       224-1.30888E+00-6.42730E+00 1.70000E+00
 -1       225-8.27966E-01-6.56413E+00 1.70000E+00
 -1       226-8.27966E-01-6.56413E+00 3.49999E-01
 -1       227-3.33315E+00-8.06068E+00 1.70000E+00
 -1       228-2.85224E+00-8.19751E+00 3.49999E-01
 -1       229-1.40950E+00-8.60801E+00 1.70000E+00
 -1       230-3.33315E+00-8.06068E+00 3.49999E-01
 -1       231-1.40950E+00-8.60801E+00 3.49999E-01
 -1       232 8.07209E-01-3.29220E+00 1.70000E+00
 -1       233 1.59149E+00-1.17559E+01 1.70000E+00
 -1       234 1.05580E-01-6.55837E+00 1.70000E+00
 -1       235-1.88525E-01-3.38446E+00 1.70000E+00
 -1       236 3.01650E-01-8.67430E+00 1.70000E+00
 -1       237 5.95756E-01-1.18482E+01 3.49999E-01
 -1       238 5.95756E-01-1.18482E+01 1.70000E+00
 -1       239 1.29738E+00-8.58203E+00 3.49999E-01
 -1       240 1.10131E+00-6.46610E+00 1.70000E+00
 -1       241 8.07209E-01-3.29220E+00 3.49999E-01
 -1       242 1.59918E+00-6.41996E+00 1.70000E+00
 -1       243 1.10131E+00-6.46610E+00 3.49999E-01
 -1       244 3.01650E-01-8.67430E+00 3.49999E-01
 -1       245 1.29738E+00-8.58203E+00 1.70000E+00
 -1       246 1.79525E+00-8.53590E+00 1.70000E+00
 -1       247-3.92287E-01-6.60450E+00 1.70000E+00
 -1       248-1.96217E-01-8.72044E+00 1.70000E+00
 -1       249 1.94198E+00-2.77828E+00 3.49999E-01
 -1       250 1.04681E+00-3.22402E+00 1.70000E+00
 -1       251 3.41480E+00-7.97958E+00 1.70000E+00
 -1       252 4.83559E+00-1.08329E+01 1.70000E+00
 -1       253 4.30996E+00-7.53384E+00 1.70000E+00
 -1       254 2.46761E+00-6.07735E+00 1.70000E+00
 -1       255 3.36277E+00-5.63162E+00 1.70000E+00
 -1       256 1.04681E+00-3.22402E+00 3.49999E-01
 -1       257 5.73075E+00-1.03872E+01 1.70000E+00
 -1       258 1.94198E+00-2.77828E+00 1.70000E+00
 -1       259 3.36277E+00-5.63162E+00 3.49999E-01
 -1       260 2.02002E+00-6.30022E+00 1.70000E+00
 -1       261 2.46761E+00-6.07735E+00 3.49999E-01
 -1       262 4.30996E+00-7.53384E+00 3.49999E-01
 -1       263 2.96722E+00-8.20245E+00 1.70000E+00
 -1       264 3.81035E+00-5.40875E+00 3.49999E-01
 -1       265 3.81035E+00-5.40875E+00 1.70000E+00
 -1       266 4.75754E+00-7.31097E+00 1.70000E+00
 -1       267 2.81447E+00-1.88915E+00 1.70000E+00
 -1       268 5.17006E+00-4.03655E+00 1.70000E+00
 -1       269 4.49637E+00-4.77556E+00 1.70000E+00
 -1       270 6.74046E+00-5.46816E+00 1.70000E+00
 -1       271 6.06676E+00-6.20717E+00 1.70000E+00
 -1       272 9.09605E+00-7.61556E+00 1.70000E+00
 -1       273 2.14078E+00-2.62816E+00 3.49999E-01
 -1       274 2.14078E+00-2.62816E+00 1.70000E+00
 -1       275 8.42235E+00-8.35457E+00 1.70000E+00
 -1       276 6.74046E+00-5.46816E+00 3.49999E-01
 -1       277 5.17006E+00-4.03655E+00 3.49999E-01
 -1       278 5.72991E+00-6.57667E+00 1.70000E+00
 -1       279 6.06676E+00-6.20717E+00 3.49999E-01
 -1       280 4.15952E+00-5.14507E+00 1.70000E+00
 -1       281 5.50691E+00-3.66705E+00 1.70000E+00
 -1       282 7.07730E+00-5.09865E+00 1.70000E+00
 -1       283 5.50691E+00-3.66705E+00 3.49999E-01
 -1       284 2.94561E+00-1.67735E+00 1.70000E+00
 -1       285 6.27911E+00-1.89633E+00 1.70000E+00
 -1       286 5.91787E+00-2.82880E+00 1.70000E+00
 -1       287 1.08716E+01-4.74790E+00 1.70000E+00
 -1       288 1.12329E+01-3.81543E+00 1.70000E+00
 -1       289 8.26062E+00-2.66397E+00 1.70000E+00
 -1       290 7.89937E+00-3.59644E+00 1.70000E+00
 -1       291 1.12329E+01-3.81543E+00 3.49999E-01
 -1       292 8.26062E+00-2.66397E+00 3.49999E-01
 -1       293 6.27911E+00-1.89633E+00 3.49999E-01
 -1       294 3.30686E+00-7.44874E-01 1.70000E+00
 -1       295 5.91787E+00-2.82880E+00 3.49999E-01
 -1       296 6.45973E+00-1.43010E+00 1.70000E+00
 -1       297 8.44124E+00-2.19773E+00 1.70000E+00
 -1       298 5.73725E+00-3.29504E+00 1.70000E+00
 -1       299 7.71875E+00-4.06268E+00 1.70000E+00
 -1       300 8.44124E+00-2.19773E+00 3.49999E-01
 -1       301 1.70000E+01 0.00000E+00 3.49999E-01
 -1       302-1.70000E+01 0.00000E+00-3.49999E-01
 -1       303-1.66733E+01 3.31653E+00 3.49999E-01
 -1       304 3.31653E+00 1.66733E+01-3.49999E-01
 -1       305 0.00000E+00 1.70000E+01-3.49999E-01
 -1       306-1.41350E+01-9.44469E+00 3.49999E-01
 -1       307 1.20208E+01 1.20208E+01-3.49999E-01
 -1       308 1.66733E+01 3.31653E+00 3.49999E-01
 -1       309 1.57060E+01 6.50562E+00-3.49999E-01
 -1       310-3.31653E+00 1.66733E+01-3.49999E-01
 -1       311 1.20208E+01-1.20208E+01-3.49999E-01
 -1       312 1.66733E+01 3.31653E+00-3.49999E-01
 -1       313 1.57060E+01-6.50562E+00-3.49999E-01
 -1       314 1.41350E+01 9.44469E+00-3.49999E-01
 -1       315 9.44469E+00-1.41350E+01-3.49999E-01
 -1       316 6.50562E+00-1.57060E+01-3.49999E-01
 -1       317-6.50562E+00-1.57060E+01-3.49999E-01
 -1       318-6.50562E+00 1.57060E+01-3.49999E-01
 -1       319-9.44469E+00 1.41350E+01-3.49999E-01
 -1       320-1.41350E+01-9.44469E+00-3.49999E-01
 -1       321-1.41350E+01 9.44469E+00-3.49999E-01
 -1       322-1.57060E+01 6.50562E+00-3.49999E-01
 -1       323-1.66733E+01 3.31653E+00-3.49999E-01
 -1       324 1.57060E+01 6.50562E+00 3.49999E-01
 -1       325 9.44469E+00 1.41350E+01-3.49999E-01
 -1       326 6.50562E+00 1.57060E+01-3.49999E-01
 -1       327 3.31653E+00 1.66733E+01 3.49999E-01
 -1       328 9.44469E+00 1.41350E+01 3.49999E-01
 -1       329-1.20208E+01 1.20208E+01-3.49999E-01
 -1       330-8.70134E+00-6.09241E-01 3.49999E-01
 -1       331-8.33384E+00 2.57519E+00 3.49999E-01
 -1       332-1.03405E+01-5.81450E+00 3.49999E-01
 -1       333-1.15589E+01-2.66940E+00 3.49999E-01
 -1       334-5.62092E+00 6.61361E+00 3.49999E-01
 -1       335-7.54181E+00 9.15729E+00 3.49999E-01
 -1       336-6.84081E+00 5.41182E+00 3.49999E-01
 -1       337-1.20208E+01 1.20208E+01 3.49999E-01
 -1       338-9.81409E+00 6.66471E+00 3.49999E-01
 -1       339-1.41350E+01 9.44469E+00 3.49999E-01
 -1       340-1.57060E+01 6.50562E+00 3.49999E-01
 -1       341-1.03405E+01 5.81450E+00 3.49999E-01
 -1       342-6.01993E+00 6.31229E+00 3.49999E-01
 -1       343-6.01993E+00-6.31229E+00 3.49999E-01
 -1       344-6.84081E+00-5.41182E+00 3.49999E-01
 -1       345-5.62092E+00-6.61361E+00 3.49999E-01
 -1       346-9.81409E+00-6.66471E+00 3.49999E-01
 -1       347-9.44469E+00-1.41350E+01 3.49999E-01
 -1       348-1.15589E+01 2.66940E+00 3.49999E-01
 -1       349-1.17427E+01 1.68643E+00 3.49999E-01
 -1       350-1.70000E+01 0.00000E+00 3.49999E-01
 -1       351-6.24502E+00-2.18472E+00 3.49999E-01
 -1       352-2.85224E+00 8.19751E+00 3.49999E-01
 -1       353-3.38742E+00 1.24558E-01 3.49999E-01
 -1       354-6.61252E+00 2.18773E-01 3.49999E-01
 -1       355-6.52065E+00-7.10259E-01 3.49999E-01
 -1       356-8.70134E+00 6.09241E-01 3.49999E-01
 -1       357-4.42389E+00 7.51756E+00 3.49999E-01
 -1       358-6.24502E+00 2.18472E+00 3.49999E-01
 -1       359-2.41942E+00 2.37414E+00 3.49999E-01
 -1       360-2.58725E+00 2.19004E+00 3.49999E-01
 -1       361-1.39840E+00 3.08782E+00 3.49999E-01
 -1       362-2.27070E+00 6.15363E+00 3.49999E-01
 -1       363-2.75162E+00 6.01680E+00 3.49999E-01
 -1       364-3.92287E-01 6.60450E+00 3.49999E-01
 -1       365-1.88525E-01-3.38446E+00 3.49999E-01
 -1       366 1.05580E-01-6.55837E+00 3.49999E-01
 -1       367-1.62140E+00 2.97677E+00 3.49999E-01
 -1       368-2.27070E+00-6.15363E+00 3.49999E-01
 -1       369-2.75162E+00-6.01680E+00 3.49999E-01
 -1       370-4.73933E+00-4.61650E+00 3.49999E-01
 -1       371-3.14329E+00-5.82177E+00 3.49999E-01
 -1       372-3.11368E+00-1.33982E+00 3.49999E-01
 -1       373-3.20367E+00 1.10753E+00 3.49999E-01
 -1       374-3.20367E+00-1.10753E+00 3.49999E-01
 -1       375-6.08696E+00-2.59272E+00 3.49999E-01
 -1       376-5.82375E+00-3.01783E+00 3.49999E-01
 -1       377-6.33690E+00-1.69323E+00 3.49999E-01
 -1       378 1.59918E+00 6.41996E+00 3.49999E-01
 -1       379 8.07209E-01 3.29220E+00 3.49999E-01
 -1       380 2.02002E+00-6.30022E+00 3.49999E-01
 -1       381 1.59918E+00-6.41996E+00 3.49999E-01
 -1       382 1.29738E+00 8.58203E+00 3.49999E-01
 -1       383 4.15952E+00-5.14507E+00 3.49999E-01
 -1       384 8.42235E+00-8.35457E+00 3.49999E-01
 -1       385 5.72991E+00-6.57667E+00 3.49999E-01
 -1       386 5.73075E+00-1.03872E+01 3.49999E-01
 -1       387 4.75754E+00-7.31097E+00 3.49999E-01
 -1       388 5.73725E+00-3.29504E+00 3.49999E-01
 -1       389 2.81447E+00-1.88915E+00 3.49999E-01
 -1       390 4.30996E+00 7.53384E+00 3.49999E-01
 -1       391 4.15952E+00 5.14507E+00 3.49999E-01
 -1       392 1.94198E+00 2.77828E+00 3.49999E-01
 -1       393 4.49637E+00 4.77556E+00 3.49999E-01
 -1       394 6.54013E+00-5.00000E-01 3.49999E-01
 -1       395 3.35263E+00-5.00000E-01 3.49999E-01
 -1       396 3.30686E+00-7.44874E-01 3.49999E-01
 -1       397 6.45973E+00-1.43010E+00 3.49999E-01
 -1       398 6.54013E+00-1.00000E+00 3.49999E-01
 -1       399 1.12329E+01 3.81543E+00 3.49999E-01
 -1       400 5.72991E+00 6.57667E+00 3.49999E-01
 -1       401 5.73075E+00 1.03872E+01 3.49999E-01
 -1       402 4.83559E+00 1.08329E+01 3.49999E-01
 -1       403 6.50562E+00 1.57060E+01 3.49999E-01
 -1       404 1.59149E+00 1.17559E+01 3.49999E-01
 -1       405 2.96722E+00 8.20245E+00 3.49999E-01
 -1       406 1.79525E+00 8.53590E+00 3.49999E-01
 -1       407-2.76271E+00 1.15370E+01 3.49999E-01
 -1       408 5.95756E-01 1.18482E+01 3.49999E-01
 -1       409-4.36578E-01-3.36148E+00 3.49999E-01
 -1       410-4.36578E-01 3.36148E+00 3.49999E-01
 -1       411-1.96217E-01 8.72044E+00 3.49999E-01
 -1       412-3.31653E+00 1.66733E+01 3.49999E-01
 -1       413-6.74380E+00 9.75992E+00 3.49999E-01
 -1       414-3.72454E+00 1.12633E+01 3.49999E-01
 -1       415-9.44469E+00 1.41350E+01 3.49999E-01
 -1       416 1.18526E+01-5.00000E-01 3.49999E-01
 -1       417 1.41350E+01 9.44469E+00 3.49999E-01
 -1       418 1.20208E+01 1.20208E+01 3.49999E-01
 -1       419 1.66733E+01-3.31653E+00 3.49999E-01
 -1       420 8.42235E+00 8.35457E+00 3.49999E-01
 -1       421 1.08716E+01 4.74790E+00 3.49999E-01
 -1       422 7.71875E+00 4.06268E+00 3.49999E-01
 -1       423 9.09605E+00 7.61556E+00 3.49999E-01
 -1       424 1.41350E+01-9.44469E+00 3.49999E-01
 -1       425 1.08716E+01-4.74790E+00 3.49999E-01
 -1       426 1.20208E+01-1.20208E+01 3.49999E-01
 -1       427 7.71875E+00-4.06268E+00 3.49999E-01
 -1       428 7.89937E+00-3.59644E+00 3.49999E-01
 -1       429 7.07730E+00-5.09865E+00 3.49999E-01
 -1       430 9.09605E+00-7.61556E+00 3.49999E-01
 -1       431 9.44469E+00-1.41350E+01 3.49999E-01
 -1       432 6.50562E+00-1.57060E+01 3.49999E-01
 -1       433 2.96722E+00-8.20245E+00 3.49999E-01
 -1       434 4.83559E+00-1.08329E+01 3.49999E-01
 -1       435 3.41480E+00-7.97958E+00 3.49999E-01
 -1       436 1.79525E+00-8.53590E+00 3.49999E-01
 -1       437 1.59149E+00-1.17559E+01 3.49999E-01
 -1       438 0.00000E+00-1.70000E+01 3.49999E-01
 -1       439 3.31653E+00-1.66733E+01 3.49999E-01
 -1       440-1.96217E-01-8.72044E+00 3.49999E-01
 -1       441-3.92287E-01-6.60450E+00 3.49999E-01
 -1       442-2.76271E+00-1.15370E+01 3.49999E-01
 -1       443-4.82290E+00-7.21624E+00 3.49999E-01
 -1       444-6.50562E+00-1.57060E+01 3.49999E-01
 -1       445-3.31653E+00-1.66733E+01 3.49999E-01
 -1       446 8.44124E+00 2.19773E+00 3.49999E-01
 -1       447 3.30686E+00 7.44874E-01 3.49999E-01
 -1       448 6.27911E+00 1.89633E+00 3.49999E-01
 -1       449 3.35263E+00 5.00000E-01 3.49999E-01
 -1       450 7.07730E+00 5.09865E+00 3.49999E-01
 -1       451 5.73725E+00 3.29504E+00 3.49999E-01
 -1       452 5.17006E+00 4.03655E+00 3.49999E-01
 -1       453 2.94561E+00 1.67735E+00 3.49999E-01
 -1       454 2.94561E+00-1.67735E+00 3.49999E-01
 -1       455 5.50691E+00 3.66705E+00 3.49999E-01
 -1       456 4.49637E+00-4.77556E+00 3.49999E-01
 -1       457-6.50562E+00 1.57060E+01 3.49999E-01
 -1       458 0.00000E+00 1.70000E+01 3.49999E-01
 -1       459 1.70000E+01 0.00000E+00-3.49999E-01
 -1       460-1.20208E+01-1.20208E+01-3.49999E-01
 -1       461-1.20208E+01-1.20208E+01 3.49999E-01
 -1       462-9.44469E+00-1.41350E+01-3.49999E-01
 -1       463-1.66733E+01-3.31653E+00-3.49999E-01
 -1       464-1.66733E+01-3.31653E+00 3.49999E-01
 -1       465 0.00000E+00-1.70000E+01-3.49999E-01
 -1       466 1.57060E+01-6.50562E+00 3.49999E-01
 -1       467 1.66733E+01-3.31653E+00-3.49999E-01
 -1       468 1.41350E+01-9.44469E+00-3.49999E-01
 -1       469-3.31653E+00-1.66733E+01-3.49999E-01
 -1       470-1.57060E+01-6.50562E+00-3.49999E-01
 -1       471-1.57060E+01-6.50562E+00 3.49999E-01
 -1       472 3.31653E+00-1.66733E+01-3.49999E-01
 -1       473 3.35263E+00 5.00000E-01 1.02500E+00
 -1       474 3.35263E+00-5.00000E-01 1.02500E+00
 -1       475 4.94638E+00 5.00000E-01 1.70000E+00
 -1       476 4.94638E+00-5.00000E-01 1.70000E+00
 -1       477 7.60263E+00 1.00000E+00 1.70000E+00
 -1       478 7.60263E+00-1.00000E+00 1.70000E+00
 -1       479 1.02589E+01 5.00000E-01 1.70000E+00
 -1       480 1.02589E+01-5.00000E-01 1.70000E+00
 -1       481 1.18526E+01 5.00000E-01 1.02500E+00
 -1       482 1.18526E+01-5.00000E-01 1.02500E+00
 -1       483 4.94638E+00-5.00000E-01 3.49999E-01
 -1       484 6.54013E+00-5.00000E-01 1.02500E+00
 -1       485 8.66513E+00-5.00000E-01 1.02500E+00
 -1       486 1.02589E+01-5.00000E-01 3.49999E-01
 -1       487 1.02589E+01 5.00000E-01 3.49999E-01
 -1       488 8.66513E+00 5.00000E-01 1.02500E+00
 -1       489 6.54013E+00 5.00000E-01 1.02500E+00
 -1       490 4.94638E+00 5.00000E-01 3.49999E-01
 -1       491 6.54013E+00-1.00000E+00 1.02500E+00
 -1       492 6.54013E+00 1.00000E+00 1.02500E+00
 -1       493 8.66513E+00-1.00000E+00 1.02500E+00
 -1       494 8.66513E+00 1.00000E+00 1.02500E+00
 -1       495 7.60263E+00-1.00000E+00 3.49999E-01
 -1       496 7.60263E+00 1.00000E+00 3.49999E-01
 -1       497 2.94561E+00 1.67735E+00 1.02500E+00
 -1       498 3.30686E+00 7.44874E-01 1.02500E+00
 -1       499 9.74676E+00 3.23970E+00 1.70000E+00
 -1       500 9.38548E+00 4.17217E+00 1.70000E+00
 -1       501 7.45049E+00 1.81392E+00 1.70000E+00
 -1       502 6.72800E+00 3.67886E+00 1.70000E+00
 -1       503 4.79298E+00 1.32060E+00 1.70000E+00
 -1       504 4.43174E+00 2.25307E+00 1.70000E+00
 -1       505 1.08716E+01 4.74790E+00 1.02500E+00
 -1       506 1.12329E+01 3.81543E+00 1.02500E+00
 -1       507 4.79298E+00 1.32060E+00 3.49999E-01
 -1       508 6.27911E+00 1.89633E+00 1.02500E+00
 -1       509 8.26062E+00 2.66397E+00 1.02500E+00
 -1       510 9.74676E+00 3.23970E+00 3.49999E-01
 -1       511 9.38548E+00 4.17217E+00 3.49999E-01
 -1       512 7.89937E+00 3.59644E+00 1.02500E+00
 -1       513 5.91787E+00 2.82880E+00 1.02500E+00
 -1       514 4.43174E+00 2.25307E+00 3.49999E-01
 -1       515 6.45973E+00 1.43010E+00 1.02500E+00
 -1       516 5.73725E+00 3.29504E+00 1.02500E+00
 -1       517 8.44124E+00 2.19773E+00 1.02500E+00
 -1       518 7.71875E+00 4.06268E+00 1.02500E+00
 -1       519 7.45049E+00 1.81392E+00 3.49999E-01
 -1       520 6.72800E+00 3.67886E+00 3.49999E-01
 -1       521 2.14078E+00 2.62816E+00 1.02500E+00
 -1       522 2.81447E+00 1.88915E+00 1.02500E+00
 -1       523 7.91825E+00 6.54186E+00 1.70000E+00
 -1       524 7.24455E+00 7.28087E+00 1.70000E+00
 -1       525 6.29211E+00 4.38285E+00 1.70000E+00
 -1       526 4.94472E+00 5.86087E+00 1.70000E+00
 -1       527 3.99226E+00 2.96285E+00 1.70000E+00
 -1       528 3.31857E+00 3.70186E+00 1.70000E+00
 -1       529 8.42235E+00 8.35457E+00 1.02500E+00
 -1       530 9.09605E+00 7.61556E+00 1.02500E+00
 -1       531 3.99226E+00 2.96285E+00 3.49999E-01
 -1       532 5.17006E+00 4.03655E+00 1.02500E+00
 -1       533 6.74046E+00 5.46816E+00 1.02500E+00
 -1       534 7.91825E+00 6.54186E+00 3.49999E-01
 -1       535 7.24455E+00 7.28087E+00 3.49999E-01
 -1       536 6.06676E+00 6.20717E+00 1.02500E+00
 -1       537 4.49637E+00 4.77556E+00 1.02500E+00
 -1       538 3.31857E+00 3.70186E+00 3.49999E-01
 -1       539 5.50691E+00 3.66705E+00 1.02500E+00
 -1       540 4.15952E+00 5.14507E+00 1.02500E+00
 -1       541 7.07730E+00 5.09865E+00 1.02500E+00
 -1       542 5.72991E+00 6.57667E+00 1.02500E+00
 -1       543 6.29211E+00 4.38285E+00 3.49999E-01
 -1       544 4.94472E+00 5.86087E+00 3.49999E-01
 -1       545 1.04681E+00 3.22402E+00 1.02500E+00
 -1       546 1.94198E+00 2.77828E+00 1.02500E+00
 -1       547 2.49362E+00 7.25134E+00 1.70000E+00
 -1       548 5.02036E+00 8.96052E+00 1.70000E+00
 -1       549 4.12520E+00 9.40624E+00 1.70000E+00
 -1       550 2.65237E+00 4.20495E+00 1.70000E+00
 -1       551 1.75721E+00 4.65068E+00 1.70000E+00
 -1       552 4.28395E+00 6.35986E+00 1.70000E+00
 -1       553 5.73075E+00 1.03872E+01 1.02500E+00
 -1       554 4.83559E+00 1.08329E+01 1.02500E+00
 -1       555 3.36277E+00 5.63162E+00 1.02500E+00
 -1       556 2.65237E+00 4.20495E+00 3.49999E-01
 -1       557 4.30996E+00 7.53384E+00 1.02500E+00
 -1       558 5.02036E+00 8.96052E+00 3.49999E-01
 -1       559 4.12520E+00 9.40624E+00 3.49999E-01
 -1       560 3.41480E+00 7.97958E+00 1.02500E+00
 -1       561 2.46761E+00 6.07735E+00 1.02500E+00
 -1       562 1.75721E+00 4.65068E+00 3.49999E-01
 -1       563 3.81035E+00 5.40875E+00 1.02500E+00
 -1       564 2.02002E+00 6.30022E+00 1.02500E+00
 -1       565 4.75754E+00 7.31097E+00 1.02500E+00
 -1       566 2.96722E+00 8.20245E+00 1.02500E+00
 -1       567 4.28395E+00 6.35986E+00 3.49999E-01
 -1       568 2.49362E+00 7.25134E+00 3.49999E-01
 -1       569-1.88525E-01 3.38446E+00 1.02500E+00
 -1       570 8.07209E-01 3.29220E+00 1.02500E+00
 -1       571-2.94252E-01 7.66247E+00 1.70000E+00
 -1       572 1.44444E+00 1.01690E+01 1.70000E+00
 -1       573 4.48703E-01 1.02612E+01 1.70000E+00
 -1       574 9.54260E-01 4.87915E+00 1.70000E+00
 -1       575-4.14725E-02 4.97142E+00 1.70000E+00
 -1       576 1.69721E+00 7.47793E+00 1.70000E+00
 -1       577 1.59149E+00 1.17559E+01 1.02500E+00
 -1       578 5.95756E-01 1.18482E+01 1.02500E+00
 -1       579 1.10131E+00 6.46610E+00 1.02500E+00
 -1       580 9.54260E-01 4.87915E+00 3.49999E-01
 -1       581 1.29738E+00 8.58203E+00 1.02500E+00
 -1       582 1.44444E+00 1.01690E+01 3.49999E-01