
 displacements (vx,vy,vz) for set NALL and time  0.1000000E+01

         1 -3.457981E-04  7.079383E-05 -7.058961E-03
         2  1.948125E-03  5.305167E-04 -6.951369E-03
         3  1.449045E-03  1.454864E-03  1.116711E-02
         4  2.558344E-04  1.742007E-03  1.202991E-02
         5  1.299415E-03  1.505031E-03  1.166335E-02
         6  4.485621E-04  1.662968E-03  1.252408E-02
         7  3.636133E-03  1.493486E-03  6.232734E-03
         8  1.844930E-03  2.450607E-03  8.117098E-03
         9  8.729422E-04 -6.789757E-05  1.163893E-02
        10  8.814581E-04  8.828560E-05  1.168938E-02
        11  1.960232E-03 -4.666330E-04  7.468680E-03
        12  1.994517E-03  5.182696E-04  7.604171E-03
        13  1.324537E-03  1.330320E-03  1.039754E-02
        14  3.721840E-03 -1.199047E-03 -2.401220E-03
        15  2.384995E-03 -1.591657E-03 -4.130849E-03
        16  3.736638E-03 -1.141477E-03 -3.204065E-03
        17  3.734458E-03 -1.235931E-03 -4.957966E-03
        18  3.434198E-03 -1.017241E-03 -3.835634E-03
        19  4.096940E-03 -4.086955E-04 -1.246797E-03
        20  3.470916E-03 -1.022141E-03 -3.895856E-03
        21  2.625800E-03 -1.066616E-03 -5.906473E-03
        22  2.627840E-03 -1.677739E-03 -7.055071E-03
        23  1.960764E-03 -3.682257E-04 -7.059855E-03
        24  1.932675E-03 -3.572721E-04 -6.943473E-03
        25  1.979647E-03  5.408849E-04 -7.060670E-03
        26 -2.350924E-04  1.140917E-04 -1.211890E-02
        27  8.363509E-04  1.320432E-05 -1.099927E-02
        28  7.848579E-04  1.753358E-04 -1.104980E-02
        29 -1.507228E-03  1.309352E-04 -9.646508E-03
        30 -5.108560E-04  1.680455E-04 -1.195659E-02
        31  3.334677E-03  1.501116E-03 -5.434448E-03
        32  1.838332E-03 -2.203291E-03 -7.880443E-03
        33 -7.451000E-04 -1.667618E-03 -8.768132E-03
        34  1.408316E-03 -1.237221E-03 -1.054811E-02
        35  4.564893E-04 -1.396258E-03 -1.061828E-02
        36  1.138774E-03 -1.213712E-03 -9.616827E-03
        37  2.643091E-03 -1.764406E-03 -8.456720E-03
        38  2.544705E-03 -1.852694E-03 -9.178923E-03
        39  2.532079E-03 -1.762160E-03 -6.486475E-03
        40  3.732854E-03  1.289570E-03 -5.995021E-03
        41  2.249342E-03  1.585033E-03 -3.358863E-03
        42  3.801325E-03  1.205954E-03 -5.085770E-03
        43  3.273573E-03  1.511101E-03 -3.899206E-03
        44  3.764006E-03  1.167039E-03 -3.335466E-03
        45  4.285175E-03 -4.520480E-05 -8.966300E-04
        46  4.091405E-03  4.127981E-04 -1.258057E-03
        47  4.134549E-03 -5.004561E-04  1.634647E-03
        48  4.253895E-03 -7.322406E-05  1.017124E-03
        49  1.344808E-03  1.317786E-03 -1.052327E-02
        50  1.185715E-03  1.192138E-03 -9.835590E-03
        51  2.594180E-03  1.038576E-03 -5.911940E-03
        52  2.580605E-03  1.039260E-03 -5.835077E-03
        53  8.324162E-05  1.499684E-03 -1.121521E-02
        54  1.480873E-05  1.368318E-03 -1.071226E-02
        55  2.565068E-03  1.654165E-03 -7.162323E-03
        56  3.433168E-03  1.041979E-03 -3.924960E-03
        57  2.591665E-03  1.758366E-03 -8.507835E-03
        58  1.611222E-03  2.147946E-03 -7.934149E-03
        59  1.882117E-03  2.044114E-03 -9.835281E-03
        60  1.741940E-03  2.220148E-03 -9.143229E-03
        61  7.000765E-04  2.245231E-03 -6.556069E-03
        62  3.734857E-03  1.220707E-03 -2.514041E-03
        63  3.877988E-03 -6.248068E-05  7.915089E-04
        64  3.783987E-03 -1.455407E-03  6.238150E-03
        65  4.243274E-03  1.001952E-04  1.141056E-03
        66  3.895040E-03  8.018650E-05  1.791430E-03
        67  3.146837E-03  7.408132E-05 -5.969848E-04
        68  3.882000E-03  9.622194E-05  9.509723E-04
        69  4.042286E-03 -4.019121E-04 -1.231389E-03
        70  3.709693E-03  1.323698E-03  3.592082E-03
        71  2.400469E-03  1.783392E-03  3.128536E-03
        72  2.423976E-03  1.804176E-03  4.143316E-03
        73  4.214847E-03  9.137527E-05 -1.656423E-03
        74  3.876240E-03  1.118228E-04 -7.559632E-04
        75  3.900792E-03 -9.160083E-05 -1.709802E-03
        76  2.635802E-03 -1.134043E-03  6.329388E-03
        77  2.670256E-03 -1.882866E-03  7.397620E-03
        78  2.579953E-03  1.871001E-03  7.529177E-03
        79  1.819532E-03 -2.409452E-03  8.093966E-03
        80  2.704842E-03 -1.961224E-03  8.873034E-03
        81  2.556895E-03 -1.990147E-03  6.773900E-03
        82  1.914145E-03 -2.459350E-03  9.427964E-03
        83  1.418240E-03 -1.358847E-03  1.029634E-02
        84  1.457777E-03 -1.469448E-03  1.113806E-02
        85  1.299624E-03 -1.519877E-03  1.163066E-02
        86  3.069425E-04 -1.672423E-03  1.126758E-02
        87  3.386027E-04 -1.787368E-03  1.202318E-02
        88 -6.705678E-04  1.928906E-03  9.444820E-03
        89 -6.702091E-04  2.074266E-03  1.010333E-02
        90  1.937400E-03  2.534317E-03  9.477781E-03
        91  1.088074E-03  2.838738E-03  7.610526E-03
        92 -4.423277E-04 -1.724291E-04  1.269815E-02
        93  7.959352E-04 -2.548850E-03  6.573113E-03
        94 -6.857567E-04 -1.978531E-03  9.211549E-03
        95 -4.301367E-04 -2.080163E-05 -1.133908E-02
        96 -4.089351E-04  6.077432E-05 -1.225938E-02
        97 -1.503845E-03  3.485441E-05 -9.701171E-03
        98 -4.274953E-04  7.813504E-05 -1.133871E-02
        99 -4.663902E-04  2.634652E-05 -1.195051E-02
       100 -4.190459E-04  1.316776E-04 -1.124052E-02
       101  6.582723E-04  1.700292E-05 -1.109623E-02
       102 -2.542500E-04  3.786427E-05 -1.204324E-02
       103 -3.847990E-04 -9.016548E-05 -1.240533E-02
       104  5.800373E-04  1.776866E-04 -1.118117E-02
       105  2.588030E-03 -1.041783E-03 -5.817854E-03
       106 -3.905583E-04 -1.365375E-05 -7.016377E-03
       107 -6.755620E-04 -1.734465E-03 -9.335402E-03
       108 -5.673411E-04 -3.810445E-04 -8.441637E-03
       109  2.134971E-04 -1.437919E-03 -1.081166E-02
       110  1.322367E-03 -1.106253E-03 -9.858639E-03
       111 -2.565591E-04 -3.177934E-04 -1.179123E-02
       112  2.404113E-04 -1.594036E-03 -1.136890E-02
       113 -3.699125E-04 -1.370952E-04 -1.117647E-02
       114 -3.041204E-04 -2.047177E-04 -1.085291E-02
       115  1.249931E-03 -1.289613E-03 -1.100141E-02
       116 -1.624967E-04 -3.335976E-04 -9.667286E-03
       117 -2.289766E-04 -2.864068E-04 -1.012973E-02
       118  4.063315E-04 -1.514813E-03 -1.181254E-02
       119 -1.814295E-04 -8.437875E-05 -3.899677E-03
       120  1.803711E-04 -5.008501E-04 -8.216068E-03
       121  9.674397E-04 -2.374773E-03 -6.539129E-03
       122 -3.873236E-05 -3.851717E-04 -8.675854E-03
       123  1.094634E-03 -2.359673E-03 -7.505947E-03
       124  1.884225E-03 -2.270941E-03 -9.095475E-03
       125  8.053651E-05 -3.730157E-04 -7.313719E-03
       126  9.010337E-05 -4.846609E-04 -9.370018E-03
       127  1.965304E-03 -2.190355E-03 -9.790892E-03
       128  1.968246E-03 -2.089139E-03 -7.343975E-03
       129 -1.396492E-04 -1.546485E-05 -1.230076E-03
       130  2.495752E-04 -4.114690E-04 -3.802640E-03
       131  2.325909E-03 -1.646989E-03 -3.106162E-03
       132  3.300614E-03 -1.500945E-03 -3.692406E-03
       133  2.816679E-04 -2.277885E-04 -3.289667E-03
       134 -1.650859E-04 -1.178257E-05 -1.267664E-03
       135  4.232356E-04 -3.456134E-04 -5.371540E-03
       136  2.123441E-04 -2.885436E-04 -5.106669E-03
       137  3.696572E-03 -1.307859E-03 -5.847769E-03
       138  3.392432E-03 -1.541311E-03 -5.272564E-03
       139  3.417855E-03 -1.507269E-03 -6.118522E-03
       140  4.714326E-04 -3.228241E-04 -3.901794E-03
       141  4.185634E-04 -3.475064E-04 -6.028615E-03
       142  3.340689E-03 -1.436035E-03 -2.946350E-03
       143  2.954833E-04 -1.663669E-04 -2.300860E-03
       144  4.057682E-03  5.745291E-04  1.684361E-03
       145  3.149458E-03  7.717310E-05  5.799581E-04
       146  5.430155E-04  6.630932E-05  9.049525E-04
       147  3.618724E-04  7.794071E-05  1.187194E-03
       148  3.725349E-04 -2.328709E-05 -7.864972E-04
       149  4.227807E-03  8.836417E-05 -7.458577E-04
       150  4.355094E-04 -7.894726E-05 -4.871805E-04
       151  5.491952E-04 -1.091342E-05 -6.933272E-04
       152  4.231885E-03  8.169310E-05  2.039132E-03
       153  5.663569E-04 -4.216784E-05 -1.451254E-03
       154  3.883658E-03  1.246109E-04 -1.601965E-03
       155  3.498289E-03  1.213620E-03  4.360292E-03
       156  2.837900E-04  4.782498E-04  3.850651E-03
       157  3.353351E-03  1.708004E-03  5.455642E-03
       158  3.540438E-03  1.224614E-03  4.416480E-03
       159  4.111017E-03  5.864195E-04  1.696298E-03
       160  4.059363E-04  3.721316E-04  4.046951E-03
       161  3.713596E-03  1.393445E-03  5.337457E-03
       162  1.560547E-04  3.614244E-04  6.440037E-03
       163  3.265463E-03  1.671587E-03  3.865064E-03
       164  3.379262E-03  1.667244E-03  6.308478E-03
       165  3.297153E-03  1.615774E-03  3.104744E-03
       166  3.683522E-03  1.375180E-03  2.778074E-03
       167 -1.646411E-04  6.500179E-04  6.903040E-03
       168  2.625942E-03  1.207375E-03  6.483620E-03
       169  3.902288E-05  4.234832E-04  7.692990E-03
       170 -1.979523E-04  1.618348E-04  4.495132E-03
       171  1.052177E-03  2.752130E-03  6.431788E-03
       172  9.138466E-05  3.937067E-04  6.892896E-03
       173 -1.296277E-05  4.131936E-04  9.156648E-03
       174  2.650635E-03  1.967157E-03  8.961455E-03
       175  2.547476E-03  2.067105E-03  9.733521E-03
       176  1.530708E-04  5.340387E-04  8.482211E-03
       177  1.976647E-03  2.345923E-03  7.549531E-03
       178  2.485054E-03  1.960490E-03  6.909595E-03
       179  2.046722E-03  2.427523E-03  1.023136E-02
       180 -2.621650E-04  1.497117E-04  6.552517E-03
       181  2.594330E-03  1.195300E-03  6.395144E-03
       182  1.967503E-03  5.087247E-04  7.492612E-03
       183 -3.458698E-04  5.684904E-05  7.664849E-03
       184 -2.824165E-04  3.552670E-04  1.243638E-02
       185 -3.242823E-04  2.714619E-04  1.146042E-02
       186 -2.802474E-04  1.445978E-04  6.669130E-03
       187 -2.342891E-04  3.626518E-04  1.068782E-02
       188  1.155056E-03  1.394990E-03  1.010638E-02
       189 -4.012037E-04  2.099539E-04  1.181189E-02
       190 -2.305395E-04  4.544415E-04  1.184413E-02
       191  4.288784E-04  1.570582E-03  1.116716E-02
       192  1.946437E-04  1.603903E-03  1.140321E-02
       193 -3.208618E-04  3.157155E-04  1.276820E-02
       194 -1.382548E-03  4.721588E-05  1.061644E-02
       195 -1.522859E-03  1.830825E-04  1.071041E-02
       196 -7.919415E-04  9.249706E-06  1.004784E-02
       197  1.972952E-03 -4.563536E-04  7.567522E-03
       198 -4.206433E-04 -4.694707E-05  1.201602E-02
       199 -4.372205E-04  1.478460E-04  1.193084E-02
       200 -4.275594E-04  8.010177E-05  1.204912E-02
       201  7.036778E-04  9.177582E-05  1.179827E-02
       202 -3.897892E-04 -9.808298E-05  1.194376E-02
       203 -2.572130E-04 -1.557966E-04  1.282742E-02
       204 -4.112405E-04 -4.198851E-05  1.305228E-02
       205 -3.989144E-04  8.229569E-06  1.268315E-02
       206  6.761188E-04 -6.265066E-05  1.175055E-02
       207 -4.329589E-04  7.988099E-05  1.318336E-02
       208 -1.665630E-04  3.796518E-06  1.278968E-02
       209 -3.174298E-04 -4.467882E-05  7.566071E-03
       210 -5.998889E-04 -2.044966E-03  9.917272E-03
       211 -5.828025E-04 -4.840641E-04  8.860084E-03
       212  2.674697E-03 -1.147189E-03  6.424416E-03
       213 -2.281593E-04 -3.452864E-04  1.057394E-02
       214 -3.334688E-04 -4.862714E-05  7.735795E-03
       215 -3.551667E-04 -1.558130E-04  1.181057E-02
       216 -3.434850E-04 -2.908839E-04  1.264229E-02
       217 -2.482404E-04 -3.332249E-04  1.248499E-02
       218  4.747887E-04 -1.617070E-03  1.102294E-02
       219  5.270653E-04 -1.705362E-03  1.249149E-02
       220 -1.728186E-04 -4.992395E-04  1.136717E-02
       221  1.237303E-03 -1.432211E-03  1.001036E-02
       222  9.424650E-04 -2.544416E-03  7.503876E-03
       223 -1.257813E-04 -6.472083E-04  6.228748E-03
       224  6.584787E-05 -4.378586E-04  7.629793E-03
       225  2.019527E-03 -2.351016E-03  1.016344E-02
       226  7.120411E-05 -5.008097E-04  9.610051E-03
       227  1.940412E-03 -2.303045E-03  7.524991E-03
       228  2.615861E-03 -2.043102E-03  9.642670E-03
       229  1.930198E-04 -5.402763E-04  7.781294E-03
       230  3.507910E-03 -1.176781E-03  4.271850E-03
       231 -1.894666E-04 -1.167952E-04  4.302340E-03
       232  2.463303E-03 -1.743117E-03  4.162946E-03
       233  2.411906E-03 -1.782606E-03  3.112327E-03
       234 -1.549620E-04 -2.862849E-05  1.647223E-03
       235  3.854828E-03 -1.309615E-03  3.482115E-03
       236  3.528031E-03 -1.179021E-03  4.347717E-03
       237  3.858956E-03 -1.364692E-03  5.322330E-03
       238  3.401864E-03 -1.670189E-03  5.459912E-03
       239  2.447019E-04 -2.880414E-04  5.431602E-03
       240  3.821321E-03 -1.359594E-03  2.636247E-03
       241  4.067317E-04 -3.714614E-04  6.222573E-03
       242  3.437786E-03 -1.600175E-03  6.317243E-03
       243  3.310129E-03 -1.660018E-03  3.826400E-03
       244  3.347033E-03 -1.606134E-03  3.066003E-03
       245 -1.331732E-04  6.427493E-05 -1.290793E-03
       246  4.041115E-03  4.093187E-04 -1.245918E-03
       247  4.088278E-03 -4.935461E-04  1.607089E-03
       248 -1.244506E-04 -2.654120E-05  1.624654E-03
       249  3.115758E-03 -9.645812E-05 -7.094442E-04
       250 -1.499242E-04  6.880161E-05 -1.318701E-03
       251  3.963592E-04  1.062476E-05  3.689970E-04
       252  5.759365E-04 -1.927725E-07  7.546720E-04
       253  3.122444E-03 -1.204973E-05  5.063081E-04
       254  4.275995E-03 -6.169770E-05 -1.804773E-03
       255  3.606409E-04  3.186005E-05 -9.101893E-04
       256  5.803057E-04 -2.313331E-05  1.466414E-03
       257  3.889562E-03 -3.921530E-05  1.629302E-03
       258  3.889435E-03 -7.892635E-05 -8.732633E-04
       259  6.036247E-04  4.858836E-05 -8.706982E-04
       260  6.107462E-04  1.735154E-05 -1.612265E-03
       261  3.230331E-04 -9.286889E-05  2.071548E-03
       262  4.242888E-03 -6.347126E-05  1.936663E-03
       263  3.089257E-04  1.296452E-04 -1.945571E-03
       264 -1.980936E-04  1.301120E-04 -3.912414E-03
       265  2.300808E-03  1.529334E-03 -4.309629E-03
       266 -2.130587E-04  1.318635E-04 -4.005798E-03
       267  2.671252E-04  2.688143E-04 -3.414495E-03
       268  3.311210E-03  1.454934E-03 -3.152562E-03
       269  3.768126E-04  3.508362E-04 -5.554980E-03
       270  3.367548E-03  1.438444E-03 -6.279947E-03
       271  3.122012E-04  4.093279E-04 -6.275330E-03
       272  4.664978E-04  3.381371E-04 -3.425907E-03
       273  3.415054E-03  1.037305E-03 -3.869349E-03
       274  7.860633E-04  2.307254E-03 -7.366433E-03
       275  6.037727E-05  4.666314E-04 -9.379550E-03
       276  9.387987E-05  5.017034E-04 -8.290812E-03
       277  2.466106E-03  1.745648E-03 -6.582296E-03
       278 -4.116675E-05  4.292762E-04 -8.754048E-03
       279  2.495737E-03  1.853722E-03 -9.230076E-03
       280  1.711693E-03  2.069720E-03 -7.431835E-03
       281  7.108985E-05  4.056439E-04 -6.617692E-03
       282 -1.223828E-04  4.066218E-04 -9.423097E-03
       283  2.218141E-06  4.825584E-04 -9.849204E-03
       284 -2.865503E-04  1.389657E-04 -5.927159E-03
       285 -8.298995E-04  1.633302E-03 -8.677151E-03
       286 -8.426706E-04  1.773858E-03 -9.226936E-03
       287 -2.954231E-04  3.062294E-04 -1.159193E-02
       288 -2.942194E-04  3.718160E-04 -1.106954E-02
       289  1.194580E-03  1.365799E-03 -1.097371E-02
       290 -2.990273E-04  2.512193E-04 -1.085025E-02
       291  1.575775E-04  1.316787E-03 -1.051557E-02
       292  9.974393E-04  1.264301E-03 -9.594581E-03
       293  2.883579E-04  1.416731E-03 -1.165252E-02
       294  0.000000E+00  0.000000E+00  0.000000E+00
       295  0.000000E+00  0.000000E+00  0.000000E+00
       296  0.000000E+00  0.000000E+00  0.000000E+00
       297  0.000000E+00  0.000000E+00  0.000000E+00
       298  0.000000E+00  0.000000E+00  0.000000E+00
       299  0.000000E+00  0.000000E+00  0.000000E+00
       300  0.000000E+00  0.000000E+00  0.000000E+00
       301  0.000000E+00  0.000000E+00  0.000000E+00
       302  0.000000E+00  0.000000E+00  0.000000E+00
       303  0.000000E+00  0.000000E+00  0.000000E+00
       304  0.000000E+00  0.000000E+00  0.000000E+00
       305  0.000000E+00  0.000000E+00  0.000000E+00
       306  0.000000E+00  0.000000E+00  0.000000E+00
       307  0.000000E+00  0.000000E+00  0.000000E+00
       308  0.000000E+00  0.000000E+00  0.000000E+00
       309  0.000000E+00  0.000000E+00  0.000000E+00
       310  0.000000E+00  0.000000E+00  0.000000E+00
       311  0.000000E+00  0.000000E+00  0.000000E+00
       312  0.000000E+00  0.000000E+00  0.000000E+00
       313  0.000000E+00  0.000000E+00  0.000000E+00
       314  0.000000E+00  0.000000E+00  0.000000E+00
       315  0.000000E+00  0.000000E+00  0.000000E+00
       316  0.000000E+00  0.000000E+00  0.000000E+00
       317  0.000000E+00  0.000000E+00  0.000000E+00
       318  0.000000E+00  0.000000E+00  0.000000E+00
       319  0.000000E+00  0.000000E+00  0.000000E+00
       320  0.000000E+00  0.000000E+00  0.000000E+00
       321  0.000000E+00  0.000000E+00  0.000000E+00
       322  0.000000E+00  0.000000E+00  0.000000E+00
       323  0.000000E+00  0.000000E+00  0.000000E+00
       324  0.000000E+00  0.000000E+00  0.000000E+00
       325  0.000000E+00  0.000000E+00  0.000000E+00
       326  0.000000E+00  0.000000E+00  0.000000E+00
       327  0.000000E+00  0.000000E+00  0.000000E+00
       328  0.000000E+00  0.000000E+00  0.000000E+00
       329  0.000000E+00  0.000000E+00  0.000000E+00
       330  0.000000E+00  0.000000E+00  0.000000E+00
       331 -3.392368E-04 -2.528018E-04  1.144471E-02
       332 -9.164913E-05 -4.269397E-04  9.804821E-03
       333 -3.726062E-06 -4.391177E-04  9.073773E-03
       334 -1.616795E-04 -3.971937E-04  1.009380E-02
       335 -2.663376E-04 -1.048986E-04  6.535327E-03
       336  5.315708E-05 -4.838132E-04  1.018523E-02
       337  1.771593E-04 -3.262862E-04  6.380248E-03
       338  1.186107E-04 -3.760935E-04  6.809206E-03
       339 -2.006740E-04 -1.163261E-04  4.408295E-03
       340  3.926778E-04 -3.916271E-04  5.563032E-03
       341  2.560710E-04 -4.382932E-04  3.865144E-03
       342  3.571674E-04  4.103602E-04  5.559823E-03
       343  3.561193E-04  4.590604E-04  6.218471E-03
       344  1.633883E-04  5.389139E-04  7.897192E-03
       345  2.316913E-04  3.377458E-04  5.482938E-03
       346  3.632645E-04 -2.842635E-05  1.069637E-03
       347  2.657014E-04 -2.749569E-04  3.566429E-03
       348  2.761295E-04  2.156052E-04 -2.434983E-03
       349  1.817706E-05  4.451275E-04 -7.401867E-03
       350  1.418614E-04  3.499087E-04 -6.174151E-03
       351  2.160388E-04  3.221172E-04 -5.230213E-03
       352 -3.183718E-04  1.407509E-04 -6.087578E-03
       353 -2.459371E-04  3.296684E-04 -1.012154E-02
       354 -3.761571E-04  7.063981E-05 -7.238913E-03
       355 -3.921109E-04  1.926422E-04 -1.113570E-02
       356 -1.967786E-04  3.829386E-04 -9.686061E-03
       357 -6.361192E-04 -4.194026E-04 -8.765793E-03
       358  0.000000E+00  0.000000E+00  0.000000E+00
       359  0.000000E+00  0.000000E+00  0.000000E+00
       360 -1.345420E-04 -6.430161E-04 -6.323430E-03
       361  3.153068E-04 -3.657284E-04 -3.084973E-03
       362  5.346476E-04 -2.640701E-04 -3.246525E-03
       363  0.000000E+00  0.000000E+00  0.000000E+00
       364  5.441701E-04  1.563317E-04  1.621638E-03
       365  4.501595E-04  2.959842E-04  3.319398E-03
       366  4.915974E-04  9.256406E-05  2.990505E-04
       367  2.948461E-04  3.959938E-04  3.109013E-03
       368 -1.467369E-04  6.396585E-04  6.304650E-03
       369  0.000000E+00  0.000000E+00  0.000000E+00
       370  0.000000E+00  0.000000E+00  0.000000E+00
       371 -1.695699E-04 -4.379522E-04 -1.088310E-02
       372 -1.867514E-04 -3.883910E-04 -1.117631E-02
       373 -1.250648E-04 -5.981359E-04 -6.892353E-03
       374  0.000000E+00  0.000000E+00  0.000000E+00
       375 -7.393637E-04  3.910019E-05 -9.219199E-03
       376  0.000000E+00  0.000000E+00  0.000000E+00
       377  0.000000E+00  0.000000E+00  0.000000E+00
       378 -7.930929E-04  4.193790E-05 -9.151746E-03
       379 -4.616048E-04 -4.697608E-05 -1.237729E-02
       380 -6.481676E-04  3.565464E-04 -8.550981E-03
       381 -4.112376E-04  9.149256E-05 -1.231546E-02
       382 -2.939632E-04  2.623845E-04 -1.187126E-02
       383 -6.433358E-04  4.216224E-04 -8.255912E-03
       384 -2.231500E-04  4.193904E-04 -1.074041E-02
       385 -2.635494E-04  6.805542E-04 -6.919213E-03
       386  2.009623E-04  4.014606E-04 -4.079935E-03
       387 -2.547532E-04  6.720058E-04 -6.293785E-03
       388  1.519029E-04  5.195582E-04 -7.800326E-03
       389  0.000000E+00  0.000000E+00  0.000000E+00
       390  2.283853E-04  4.274271E-04 -3.361217E-03
       391  4.219841E-04  3.852325E-04 -4.125204E-03
       392  4.073632E-04  1.825783E-05 -4.476762E-04
       393  0.000000E+00  0.000000E+00  0.000000E+00
       394  4.583918E-04 -3.456327E-04  3.333377E-03
       395  2.871684E-04 -1.940354E-04  2.560265E-03
       396  4.278273E-04 -3.534880E-04  4.040890E-03
       397  3.248076E-04 -4.073027E-04  3.142366E-03
       398  1.476056E-04 -5.396726E-04  8.468382E-03
       399  0.000000E+00  0.000000E+00  0.000000E+00
       400 -3.958171E-04 -7.226976E-05 -1.129918E-02
       401 -2.801071E-04 -2.630626E-04 -1.206027E-02
       402 -4.124631E-04 -2.121460E-05 -7.201152E-03
       403  5.595129E-05 -4.673547E-04 -9.882599E-03
       404  2.469638E-04 -4.828744E-04 -7.611025E-03
       405  1.107683E-04 -3.435920E-04 -6.509631E-03
       406 -3.086122E-04 -8.239103E-05 -6.075938E-03
       407 -9.955932E-05 -3.563384E-04 -9.390173E-03
       408  1.552150E-04 -3.126841E-04 -6.068768E-03
       409 -2.065322E-04 -8.862862E-05 -3.992722E-03
       410  3.272997E-04 -8.260836E-05 -1.807809E-03
       411  3.228812E-04  1.544460E-04  2.210770E-03
       412 -1.420261E-04  7.462334E-05  1.756242E-03
       413  2.961009E-04  2.300451E-04  2.706278E-03
       414  2.671573E-04  2.999557E-04  3.696773E-03
       415 -1.903963E-04 -4.423304E-04  1.173927E-02
       416 -1.710723E-04 -6.588610E-04  6.924509E-03
       417  0.000000E+00  0.000000E+00  0.000000E+00
       418 -5.493862E-04 -4.541414E-04  9.218462E-03
       419  6.317570E-05  5.269050E-04  9.781627E-03
       420 -1.987137E-04  5.131339E-04  1.151052E-02
       421 -1.040172E-04  4.101069E-04  9.896465E-03
       422 -4.742265E-06  5.082121E-04  1.020878E-02
       423 -1.847657E-04  3.989915E-04  1.018863E-02
       424 -3.942600E-04  4.619779E-05  1.317056E-02
       425 -6.254040E-04  4.979017E-04  9.394235E-03
       426 -6.027863E-04  5.222373E-04  9.002429E-03
       427 -3.569298E-04  5.936385E-05  7.789130E-03
       428 -3.770158E-04 -1.001625E-04  1.298247E-02
       429 -8.414547E-04  2.873748E-06  1.002258E-02
       430 -2.880129E-04 -7.486123E-05 -5.940842E-03
       431 -1.237753E-04  7.386443E-05  1.717059E-03
       432 -1.736965E-04  1.548389E-04  4.410571E-03
       433 -2.478636E-04 -1.039344E-04  6.412248E-03
       434  0.000000E+00  0.000000E+00  0.000000E+00
       435  0.000000E+00  0.000000E+00  0.000000E+00
       436  0.000000E+00  0.000000E+00  0.000000E+00
       437  0.000000E+00  0.000000E+00  0.000000E+00
       438  0.000000E+00  0.000000E+00  0.000000E+00
       439  0.000000E+00  0.000000E+00  0.000000E+00
       440  0.000000E+00  0.000000E+00  0.000000E+00
       441  0.000000E+00  0.000000E+00  0.000000E+00
       442  0.000000E+00  0.000000E+00  0.000000E+00
       443  0.000000E+00  0.000000E+00  0.000000E+00
       444  0.000000E+00  0.000000E+00  0.000000E+00
       445  0.000000E+00  0.000000E+00  0.000000E+00
       446  0.000000E+00  0.000000E+00  0.000000E+00
       447  0.000000E+00  0.000000E+00  0.000000E+00
       448  0.000000E+00  0.000000E+00  0.000000E+00
       449  6.010022E-04 -1.850176E-04 -7.183372E-03
       450  6.054250E-04  2.839682E-04 -7.174356E-03
       451  8.142596E-04  1.465483E-03  1.088060E-02
       452  9.827262E-04  1.615539E-03  1.241727E-02
       453  3.665720E-03 -1.555324E-03  6.331378E-03
       454  3.544979E-03  1.602870E-03  6.386294E-03
       455  2.220093E-03  2.127972E-03  7.432669E-03
       456  2.271356E-03  2.288162E-03  1.022666E-02
       457  1.582590E-03 -5.792147E-05  9.912015E-03
       458  1.618642E-03  6.699068E-05  9.940492E-03
       459  2.065094E-03 -1.112557E-03  8.653170E-03
       460  2.077062E-03 -1.222241E-03  9.566494E-03
       461  3.601783E-03 -1.486874E-03  2.950552E-03
       462  2.067039E-03  1.100934E-03  8.755363E-03
       463  2.034468E-03  1.257082E-03  9.635653E-03
       464  3.576377E-03  1.470609E-03  3.067284E-03
       465  3.620728E-03 -1.290755E-03 -2.797351E-03
       466  2.746748E-03 -1.604967E-03 -4.803075E-03
       467  2.644937E-03 -1.669872E-03 -3.594581E-03
       468  3.996927E-03 -1.067610E-03 -4.421409E-03
       469  4.028939E-03 -9.172205E-04 -2.424963E-03
       470  3.574564E-03 -1.435969E-03 -6.117532E-03
       471  3.042664E-03 -1.511075E-03 -7.262673E-03
       472  3.060780E-03 -1.342574E-03 -5.761515E-03
       473  2.033476E-03 -1.051881E-03 -9.032552E-03
       474  1.987345E-03 -9.333027E-04 -8.181370E-03
       475  1.585596E-03  1.874762E-04 -9.328620E-03
       476  1.502831E-03  5.422565E-05 -9.261293E-03
       477  1.457611E-04  2.163110E-04 -1.193807E-02
       478  1.615798E-04  7.028653E-06 -1.187416E-02
       479 -1.320804E-03  1.582860E-04 -1.106644E-02
       480 -1.292535E-03  6.844063E-05 -1.107369E-02
       481  3.577159E-03  1.416025E-03 -6.259521E-03
       482  1.298264E-03 -2.417716E-03 -8.398511E-03
       483  1.227634E-03 -2.425222E-03 -7.389607E-03
       484 -5.313340E-04 -1.751347E-03 -1.057941E-02
       485 -5.006797E-04 -1.638051E-03 -1.005714E-02
       486  7.737212E-04 -1.379391E-03 -1.162483E-02
       487  8.344651E-04 -1.278796E-03 -1.030176E-02
       488  2.282711E-03 -2.020967E-03 -9.691422E-03
       489  2.208911E-03 -1.895318E-03 -7.123117E-03
       490  2.695101E-03  1.580127E-03 -4.973478E-03
       491  2.584201E-03  1.670972E-03 -3.784157E-03
       492  4.053937E-03  1.067923E-03 -4.460694E-03
       493  4.046715E-03  9.401024E-04 -2.494862E-03
       494  4.475201E-03 -2.273158E-06 -9.420041E-04
       495  4.508524E-03 -1.355046E-04  1.258657E-03
       496  3.392811E-03 -4.451272E-05 -7.672432E-04
       497  3.407442E-03 -4.159314E-06  5.975486E-04
       498  2.034876E-03  1.210563E-03 -9.024869E-03
       499  1.995420E-03  1.082957E-03 -8.131486E-03
       500  8.502368E-04  1.441113E-03 -1.164323E-02
       501  6.302980E-04  1.294697E-03 -1.030937E-02
       502 -7.137570E-04  1.605304E-03 -1.035895E-02
       503 -6.555805E-04  1.503721E-03 -9.932823E-03
       504  3.063789E-03  1.483489E-03 -7.337618E-03
       505  3.017197E-03  1.374291E-03 -5.805475E-03
       506  2.253065E-03  2.028922E-03 -9.784068E-03
       507  2.110912E-03  1.880476E-03 -7.263136E-03
       508  9.880684E-04  2.297838E-03 -8.399847E-03
       509  9.273638E-04  2.307757E-03 -7.486082E-03
       510  3.588212E-03  1.297050E-03 -2.930059E-03
       511  4.103731E-03 -7.440498E-05  1.818697E-03
       512  4.112226E-03 -1.059018E-03  2.757296E-03
       513  4.121940E-03 -1.218019E-03  4.794014E-03
       514  2.708448E-03 -1.792035E-03  3.626240E-03
       515  2.802646E-03 -1.753306E-03  4.958698E-03
       516  4.050621E-03  9.378415E-05  1.868232E-03
       517  3.365973E-03  1.106796E-04 -6.384527E-04
       518  4.479055E-03  1.694036E-05 -8.412081E-04
       519  4.440460E-03  1.417697E-04  1.294311E-03
       520  3.398384E-03  6.270207E-05  7.203208E-04
       521  4.063049E-03  1.158852E-03  2.873669E-03
       522  4.064921E-03  1.256123E-03  4.972261E-03
       523  2.631113E-03  1.826414E-03  3.609145E-03
       524  2.735895E-03  1.794013E-03  4.902109E-03
       525  4.031098E-03  9.785740E-05 -1.605797E-03
       526  4.098206E-03 -5.304127E-05 -1.739113E-03
       527  3.104481E-03 -1.521546E-03  6.152977E-03
       528  3.103387E-03 -1.657079E-03  7.761820E-03
       529  3.110879E-03  1.564093E-03  6.224117E-03
       530  3.082138E-03  1.698044E-03  7.852761E-03
       531  2.267846E-03 -2.082192E-03  7.383984E-03
       532  2.300342E-03 -2.225443E-03  1.007571E-02
       533  8.849590E-04 -1.504288E-03  1.077425E-02
       534  1.016956E-03 -1.647796E-03  1.233326E-02
       535 -1.187007E-03 -1.387906E-04  1.196680E-02
       536 -1.258183E-03 -2.697188E-05  1.198656E-02
       537 -4.680624E-04  1.803177E-03  1.060606E-02
       538 -5.327034E-04  1.927197E-03  1.127496E-02
       539  1.164243E-03  2.681944E-03  7.473387E-03
       540  1.251310E-03  2.746327E-03  8.666813E-03
       541  2.654226E-04 -1.041506E-04  1.258666E-02
       542  2.336688E-04  6.841063E-05  1.256677E-02
       543  1.135864E-03 -2.604366E-03  7.534993E-03
       544  1.236232E-03 -2.607497E-03  8.639077E-03
       545 -4.305752E-04 -1.932815E-03  1.048675E-02
       546 -4.460700E-04 -2.045376E-03  1.121550E-02
       547 -1.166525E-03  1.003549E-04 -9.502525E-03
       548 -1.108962E-03  5.530157E-05 -9.591693E-03
       549 -4.823245E-04  8.637136E-06 -1.141446E-02
       550 -4.492200E-04  1.140551E-04 -1.229679E-02
       551  1.637157E-04  8.710843E-05 -1.129079E-02
       552 -4.566424E-04 -1.225902E-05 -9.586527E-03
       553  6.234750E-04 -1.991969E-04 -7.269498E-03
       554  6.238636E-04  2.778273E-04 -7.258394E-03
       555 -4.576840E-04  8.889710E-05 -9.474818E-03
       556  1.365350E-04  4.585049E-05 -1.127165E-02
       557 -4.421687E-04  4.532983E-05 -1.225824E-02
       558 -5.521598E-04  3.753728E-05 -1.133873E-02
       559  3.746525E-05  6.843787E-05 -1.127329E-02
       560  3.966084E-05  6.225987E-05 -1.135507E-02
       561 -3.639762E-04  4.539829E-05 -1.227059E-02
       562 -3.919994E-04  1.074920E-04 -1.237241E-02
       563 -3.635901E-04  1.561896E-04 -1.220410E-02
       564 -3.412479E-04 -7.073114E-05 -1.219694E-02