
 displacements (vx,vy,vz) for set NALL and time  0.1000000E+01

         1  2.506309E-03  5.136631E-04 -9.812799E-03
         2  4.485990E-04  1.840079E-03  1.538273E-02
         3  1.676964E-03  1.653781E-03  1.552776E-02
         4  1.102874E-04  2.102447E-03  1.652615E-02
         5  1.448291E-03  1.741565E-03  1.616969E-02
         6  4.032335E-04  1.983897E-03  1.712990E-02
         7  4.849597E-03 -1.836949E-03  8.682627E-03
         8  4.706728E-03  1.781632E-03  9.022754E-03
         9  2.138493E-03  2.899253E-03  1.166837E-02
        10  2.288798E-03  3.011724E-03  1.340797E-02
        11  9.723871E-04 -8.214304E-06  1.608609E-02
        12  2.528900E-03 -6.931147E-04  1.040131E-02
        13  2.573090E-03  4.896734E-04  1.060659E-02
        14  1.537588E-03  1.473335E-03  1.458565E-02
        15  4.331296E-03  1.985715E-03  4.844864E-03
        16  4.844646E-03 -1.573123E-03 -3.260094E-03
        17  3.004389E-03 -2.125039E-03 -5.590386E-03
        18  4.875522E-03 -1.478804E-03 -4.383199E-03
        19  4.891964E-03 -1.546517E-03 -6.890499E-03
        20  4.567333E-03 -1.365648E-03 -5.321287E-03
        21  5.453833E-03 -6.264337E-04 -1.629436E-03
        22  3.437393E-03 -1.484457E-03 -8.293744E-03
        23  3.333896E-03 -2.251119E-03 -9.921523E-03
        24  2.611476E-03 -6.259564E-04 -9.926192E-03
        25  2.572442E-03 -6.112782E-04 -9.783001E-03
        26  2.538132E-03  5.296324E-04 -9.953078E-03
        27  9.667410E-04 -5.871797E-05 -1.558085E-02
        28  9.652177E-04 -2.341746E-04 -1.571393E-02
        29 -2.229075E-03 -1.430376E-05 -1.317323E-02
        30 -7.504535E-04 -9.481319E-05 -1.672819E-02
        31  4.413446E-03  1.921739E-03 -7.819609E-03
        32  2.263679E-03 -2.944180E-03 -1.094463E-02
        33  4.101904E-04 -1.916380E-03 -1.662866E-02
        34  4.731390E-04 -1.891361E-03 -1.481244E-02
        35  1.712611E-03 -1.685532E-03 -1.484714E-02
        36  2.495748E-03 -2.839841E-03 -1.374313E-02
        37  4.842038E-03  1.434988E-03 -4.864275E-03
        38  4.864773E-03  1.491209E-03 -7.309625E-03
        39  4.326661E-03  1.926174E-03 -5.616738E-03
        40  4.638105E-03  1.322543E-03 -5.583318E-03
        41  5.494824E-03  4.993477E-04 -1.905469E-03
        42  5.546766E-03 -6.990855E-04  2.243184E-03
        43  5.531922E-03 -1.217860E-04  1.343291E-03
        44  1.670755E-03  1.488018E-03 -1.390429E-02
        45  3.415510E-03  1.250658E-03 -8.275376E-03
        46  1.684176E-04  2.089591E-03 -1.601931E-02
        47  1.711559E-03  1.639837E-03 -1.493839E-02
        48  1.429597E-04  1.867416E-03 -1.522058E-02
        49  3.120544E-03  1.988536E-03 -1.022057E-02
        50  3.465260E-03  1.272887E-03 -8.403768E-03
        51  3.198898E-03  2.133014E-03 -1.200271E-02
        52  2.042885E-03  2.722547E-03 -1.127733E-02
        53  2.210521E-03  2.588202E-03 -1.058692E-02
        54  2.182385E-03  2.804246E-03 -1.289417E-02
        55  7.957986E-04  2.967550E-03 -9.079650E-03
        56  5.212958E-03 -7.794397E-05  1.082087E-03
        57  4.713267E-03 -1.522268E-03  6.059656E-03
        58  4.366342E-03 -2.127180E-03  7.660919E-03
        59  4.284687E-03 -2.138250E-03  5.409394E-03
        60  2.921363E-03 -2.248252E-03  4.419889E-03
        61  2.963143E-03 -2.230470E-03  5.748567E-03
        62  5.249846E-03  6.633320E-05  2.907828E-03
        63  5.519117E-03  1.036078E-04  3.088238E-03
        64  5.540277E-03  9.893598E-05  1.762414E-03
        65  3.976936E-03  1.211473E-04 -4.654298E-04
        66  5.226184E-03  7.713046E-05  1.678727E-03
        67  5.412323E-03 -6.141075E-04 -1.603853E-03
        68  5.470738E-03  6.558644E-04  2.517497E-03
        69  4.548846E-03  1.421156E-03  6.131529E-03
        70  4.800167E-03  1.604988E-03  5.343456E-03
        71  4.215941E-03  2.098994E-03  5.891168E-03
        72  2.916457E-03  2.303442E-03  4.903597E-03
        73  2.945702E-03  2.324367E-03  6.223663E-03
        74  5.216312E-03  8.227196E-05 -8.240908E-04
        75  5.248533E-03 -6.548476E-05 -2.590000E-03
        76  5.493380E-03 -3.989396E-05 -2.643800E-03
        77  3.410155E-03 -1.481299E-03  8.865125E-03
        78  3.325031E-03 -2.383435E-03  1.043863E-02
        79  3.406870E-03 -2.474369E-03  1.241270E-02
        80  4.594667E-03  1.436204E-03  6.211268E-03
        81  3.393837E-03  1.390889E-03  9.095668E-03
        82  3.181429E-03  2.188521E-03  1.077146E-02
        83  3.163993E-03 -2.527634E-03  9.605083E-03
        84  2.517281E-03 -2.901225E-03  1.048266E-02
        85  2.377281E-03 -3.179040E-03  1.305620E-02
        86  1.584200E-03 -1.658900E-03  1.440316E-02
        87  1.671303E-03 -1.814570E-03  1.550638E-02
        88  1.435309E-03 -1.900833E-03  1.616682E-02
        89  9.336999E-05 -2.113670E-03  1.542276E-02
        90  1.278817E-04 -2.292199E-03  1.643809E-02
        91 -1.339797E-03  2.379632E-03  1.221101E-02
        92 -1.295528E-03  2.502282E-03  1.303007E-02
        93  1.066942E-03  3.473053E-03  1.073524E-02
        94 -8.023390E-04 -7.535971E-05  1.706234E-02
        95 -3.665449E-04  1.136435E-04  1.737283E-02
        96  8.193668E-04 -3.267179E-03  8.950461E-03
        97 -1.445240E-03 -2.313790E-03  1.212814E-02
        98 -1.054220E-03 -5.519298E-05 -1.267092E-02
        99 -5.722800E-04 -9.625087E-05 -1.727636E-02
       100 -5.357600E-04 -6.281394E-05 -1.600506E-02
       101 -4.006859E-04  6.260592E-05 -1.010264E-02
       102 -2.266988E-03 -1.807579E-04 -1.323958E-02
       103  6.821210E-04 -6.094881E-05 -1.571496E-02
       104 -6.335511E-04  1.729045E-05 -1.742515E-02
       105 -7.372761E-04 -2.780186E-04 -1.686105E-02
       106 -4.883889E-04  1.784254E-04 -1.602131E-02
       107  6.971673E-04 -2.283028E-04 -1.590467E-02
       108 -4.316276E-04 -2.646437E-04 -1.705422E-02
       109 -6.442040E-04 -1.456692E-04 -1.735669E-02
       110 -4.139815E-04 -1.119586E-04 -1.686647E-02
       111  3.403033E-03 -1.471793E-03 -8.188091E-03
       112 -3.719618E-04 -8.461619E-05 -9.876665E-03
       113 -1.313211E-03 -2.293366E-03 -1.292432E-02
       114  7.656309E-05 -1.941271E-03 -1.510914E-02
       115 -1.474959E-03 -2.304468E-03 -1.196883E-02
       116 -4.749109E-04 -5.329316E-04 -1.568903E-02
       117  1.591759E-03 -1.483494E-03 -1.391556E-02
       118  1.068306E-04 -2.128442E-03 -1.603562E-02
       119 -3.685498E-04 -3.546481E-04 -1.525601E-02
       120  1.342952E-03 -1.579198E-03 -1.356718E-02
       121 -2.566956E-04 -4.745617E-04 -1.352548E-02
       122 -4.653605E-04 -4.582556E-04 -1.649671E-02
       123  1.472262E-03 -1.768290E-03 -1.551222E-02
       124 -3.622104E-04 -5.938932E-04 -1.521316E-02
       125 -2.257565E-04 -7.500675E-04 -8.603000E-03
       126  1.670866E-04 -6.605095E-04 -1.131638E-02
       127  9.511777E-04 -3.119462E-03 -8.852581E-03
       128 -1.710229E-04 -1.200742E-04 -5.512219E-03
       129  1.078279E-03 -3.161124E-03 -1.016621E-02
       130  2.355869E-03 -3.047797E-03 -1.273777E-02
       131  3.344467E-03 -2.362662E-03 -1.190613E-02
       132 -5.679728E-05 -5.559746E-04 -1.220934E-02
       133  1.038681E-04 -5.463087E-04 -1.019762E-02
       134  1.936115E-04 -7.190922E-04 -1.051321E-02
       135  4.619339E-05 -6.465412E-04 -1.375253E-02
       136  3.202331E-03 -2.485199E-03 -1.296072E-02
       137  3.170819E-03 -2.386823E-03 -9.106318E-03
       138  2.437594E-03 -2.790596E-03 -1.017924E-02
       139  1.811140E-04 -4.940699E-04 -9.038641E-03
       140 -6.561811E-05 -4.540170E-05 -1.566378E-03
       141  2.915518E-03 -2.241653E-03 -4.141657E-03
       142  4.487274E-04 -5.058468E-04 -4.184322E-03
       143  4.256524E-03 -1.941171E-03 -5.117346E-03
       144  4.150802E-04 -3.722063E-04 -7.080292E-03
       145  4.618274E-03 -1.375124E-03 -5.423149E-03
       146  4.839003E-03 -1.628656E-03 -8.146379E-03
       147  4.381950E-03 -1.955836E-03 -7.404955E-03
       148  4.444611E-03 -1.838577E-03 -8.609989E-03
       149  4.391330E-04 -4.381204E-04 -7.523774E-03
       150  5.478209E-04 -4.152198E-04 -5.417483E-03
       151  4.411820E-04 -4.566083E-04 -8.388970E-03
       152  4.320147E-03 -1.853242E-03 -4.041702E-03
       153 -6.465434E-05  9.265264E-05  2.489565E-03
       154  5.406419E-03  6.478147E-04  2.483754E-03
       155  3.987285E-03  3.813281E-05  1.148019E-03
       156  8.088525E-04  8.198324E-05  1.638567E-03
       157  6.054714E-04  6.738805E-05  1.836343E-03
       158  5.848545E-04 -3.774238E-05 -9.579282E-04
       159  5.521479E-03  3.607629E-05 -8.958246E-04
       160  5.507207E-03  2.687288E-05 -2.208967E-03
       161  5.232968E-03  8.879395E-05 -2.064962E-03
       162  3.417647E-04  7.410076E-04  5.874053E-03
       163  5.781106E-04  5.459069E-04  8.245410E-03
       164  4.353470E-03  2.099133E-03  8.127523E-03
       165  4.819853E-03  1.656682E-03  7.791100E-03
       166  2.949246E-04  4.673509E-04  9.300006E-03
       167  4.742297E-03  1.697118E-03  4.212240E-03
       168  4.398232E-03  2.005924E-03  9.297389E-03
       169  3.358967E-03  1.380051E-03  8.972429E-03
       170  1.160104E-04  6.059790E-04  1.095892E-02
       171 -1.623858E-04  1.576553E-04  6.343307E-03
       172  1.001872E-03  3.359370E-03  9.273382E-03
       173  3.258185E-03  2.316754E-03  1.265812E-02
       174  3.119971E-03  2.449353E-03  1.368165E-02
       175  1.791917E-04  7.365865E-04  1.209861E-02
       176  3.045993E-03  2.314196E-03  9.969389E-03
       177  2.312361E-03  2.770242E-03  1.096721E-02
       178  2.294797E-04  6.944397E-04  1.139391E-02
       179  2.469820E-03  2.840774E-03  1.438849E-02
       180 -2.244580E-04  1.551430E-04  9.088819E-03
       181  2.543374E-03  4.843916E-04  1.047273E-02
       182 -3.411728E-04  6.178474E-05  1.061954E-02
       183 -3.262708E-04  4.189137E-04  1.701531E-02
       184 -3.069527E-04  3.979481E-04  1.588077E-02
       185 -2.759110E-04  4.816105E-04  1.487666E-02
       186 -3.773443E-04  3.034617E-04  1.637011E-02
       187 -2.709227E-04  5.689380E-04  1.622616E-02
       188  8.142218E-05  1.899668E-03  1.570430E-02
       189  1.309072E-03  1.566316E-03  1.423952E-02
       190 -1.889137E-04  5.892046E-04  1.587740E-02
       191 -3.823530E-04  3.655758E-04  1.707893E-02
       192 -2.223278E-03  1.174314E-04  1.345596E-02
       193 -4.172668E-04 -1.641878E-05  1.654982E-02
       194  9.355620E-04  2.060148E-04  1.621975E-02
       195  2.535283E-03 -6.902063E-04  1.052300E-02
       196 -3.568199E-04  6.059096E-05  1.083656E-02
       197 -5.550940E-04  4.839576E-05  1.763703E-02
       198 -2.201285E-03 -2.092028E-05  1.343612E-02
       199 -4.109716E-04  2.325253E-04  1.650535E-02
       200  6.694674E-04  2.168065E-04  1.641332E-02
       201 -5.195632E-04 -7.028380E-05  1.759568E-02
       202 -7.945679E-04  2.005844E-04  1.717181E-02
       203  6.948107E-04  5.325562E-06  1.625671E-02
       204 -5.079576E-04 -5.539307E-05  1.725303E-02
       205 -3.223171E-04 -5.693692E-05  1.059929E-02
       206 -1.286766E-03 -2.385321E-03  1.289684E-02
       207  3.449588E-03 -1.499194E-03  8.987571E-03
       208 -2.454174E-04 -4.186409E-04  1.477006E-02
       209 -3.903571E-04 -2.169768E-04  1.639106E-02
       210 -5.443933E-04 -3.774368E-04  1.716406E-02
       211 -4.140109E-04 -4.216463E-04  1.685641E-02
       212  3.813687E-04 -2.021137E-03  1.508649E-02
       213  4.008376E-04 -2.179557E-03  1.707136E-02
       214  1.344352E-03 -1.754358E-03  1.402269E-02
       215  1.003090E-03 -3.269617E-03  1.023307E-02
       216  2.156907E-04 -6.501108E-04  1.167856E-02
       217 -2.161970E-04 -8.686866E-04  8.670110E-03
       218 -6.094389E-05 -4.912483E-04  1.368959E-02
       219  6.681588E-05 -5.530223E-04  1.268391E-02
       220  1.910267E-04 -5.600506E-04  1.072472E-02
       221  2.538538E-03 -3.017967E-03  1.408794E-02
       222  9.000570E-05 -6.358133E-04  1.335323E-02
       223  2.249787E-03 -3.055943E-03  1.127378E-02
       224  3.277607E-03 -2.584615E-03  1.347375E-02
       225  4.660328E-03 -1.516769E-03  5.969124E-03
       226  4.936736E-03 -1.689127E-03  4.896227E-03
       227  5.324849E-04 -3.656216E-04  4.983789E-03
       228  4.769670E-04 -4.029599E-04  7.650527E-03
       229 -1.655630E-04 -1.434251E-04  6.161139E-03
       230  4.955544E-03 -1.721080E-03  7.420511E-03
       231  4.427308E-03 -2.001372E-03  8.877717E-03
       232  4.883691E-04 -4.763817E-04  7.779432E-03
       233  5.648793E-04 -4.674432E-04  5.680467E-03
       234  4.877281E-03 -1.775903E-03  3.738400E-03
       235  4.347625E-03 -2.047193E-03  4.314308E-03
       236  5.429100E-03  4.924526E-04 -1.874021E-03
       237  5.497827E-03 -6.867029E-04  2.204520E-03
       238  4.119380E-03 -7.389735E-05 -9.692620E-04
       239  4.131559E-03  7.085467E-05  7.991292E-04
       240  5.511323E-03 -5.732453E-05 -1.334844E-03
       241 -4.408751E-05  5.772854E-05 -1.883788E-03
       242  6.428568E-04 -2.916079E-05  6.460560E-04
       243  6.536331E-04 -4.166348E-05  1.395755E-03
       244  6.277714E-04  7.841515E-05 -1.393694E-03
       245  8.392566E-04 -5.112340E-05  2.051260E-03
       246  5.232397E-03 -7.507953E-05  2.300225E-03
       247  5.233393E-03 -5.893233E-05 -1.362183E-03
       248  8.030707E-04  3.986686E-05 -1.332263E-03
       249  8.001447E-04  2.882024E-05 -2.341745E-03
       250  5.515770E-03 -1.230303E-04  2.660282E-03
       251  3.129688E-03  2.143687E-03 -4.835695E-03
       252  3.136647E-03  2.203113E-03 -6.194276E-03
       253 -1.269239E-04  1.320320E-04 -5.694201E-03
       254  5.172520E-04  3.388033E-04 -4.937814E-03
       255  3.070314E-04  4.384895E-04 -8.850803E-03
       256  4.801107E-03  1.590222E-03 -8.557591E-03
       257  4.381766E-03  1.840380E-03 -4.536143E-03
       258  6.755583E-04  4.479368E-04 -5.858088E-03
       259  5.734036E-04  4.694633E-04 -8.000743E-03
       260  4.465450E-03  1.816337E-03 -9.015795E-03
       261  5.113656E-04  4.836603E-04 -9.035912E-03
       262  4.789256E-03  1.511294E-03 -3.728029E-03
       263  4.583156E-03  1.299342E-03 -5.493489E-03
       264  8.760728E-04  3.091669E-03 -1.021641E-02
       265  1.129385E-04  6.800166E-04 -1.320785E-02
       266  1.830387E-04  6.871922E-04 -1.163077E-02
       267  6.318928E-05  5.560350E-04 -1.234046E-02
       268  3.048000E-03  2.269594E-03 -1.297680E-02
       269  2.969377E-03  2.127568E-03 -9.486406E-03
       270  2.045754E-04  5.155366E-04 -9.453776E-03
       271  2.350799E-03  2.640254E-03 -1.382839E-02
       272  5.182688E-05  6.216358E-04 -1.389030E-02
       273 -1.294110E-03  2.498848E-03 -1.282333E-02
       274 -8.300666E-04  4.824497E-04 -1.185570E-02
       275 -1.447034E-03  2.480598E-03 -1.178021E-02
       276 -4.493515E-04  4.484178E-04 -1.647032E-02
       277 -2.816985E-04  1.183059E-04 -8.568533E-03
       278 -2.117912E-04  4.885281E-04 -1.367002E-02
       279 -3.296038E-04  4.246774E-04 -1.430681E-02
       280  1.392535E-03  1.594936E-03 -1.359144E-02
       281  1.475461E-03  1.719443E-03 -1.555895E-02
       282 -3.854234E-04  3.280408E-04 -1.537132E-02
       283  4.069289E-04  1.771888E-03 -1.491369E-02
       284 -5.157336E-04  3.515425E-04 -1.708005E-02
       285  4.341308E-04  1.961962E-03 -1.664463E-02
       286  0.000000E+00  0.000000E+00  0.000000E+00
       287  0.000000E+00  0.000000E+00  0.000000E+00
       288  0.000000E+00  0.000000E+00  0.000000E+00
       289  0.000000E+00  0.000000E+00  0.000000E+00
       290  0.000000E+00  0.000000E+00  0.000000E+00
       291  0.000000E+00  0.000000E+00  0.000000E+00
       292  0.000000E+00  0.000000E+00  0.000000E+00
       293  0.000000E+00  0.000000E+00  0.000000E+00
       294  0.000000E+00  0.000000E+00  0.000000E+00
       295  0.000000E+00  0.000000E+00  0.000000E+00
       296  0.000000E+00  0.000000E+00  0.000000E+00
       297  0.000000E+00  0.000000E+00  0.000000E+00
       298  0.000000E+00  0.000000E+00  0.000000E+00
       299  0.000000E+00  0.000000E+00  0.000000E+00
       300  0.000000E+00  0.000000E+00  0.000000E+00
       301  0.000000E+00  0.000000E+00  0.000000E+00
       302  0.000000E+00  0.000000E+00  0.000000E+00
       303  0.000000E+00  0.000000E+00  0.000000E+00
       304  0.000000E+00  0.000000E+00  0.000000E+00
       305  0.000000E+00  0.000000E+00  0.000000E+00
       306  0.000000E+00  0.000000E+00  0.000000E+00
       307  0.000000E+00  0.000000E+00  0.000000E+00
       308  0.000000E+00  0.000000E+00  0.000000E+00
       309  0.000000E+00  0.000000E+00  0.000000E+00
       310  0.000000E+00  0.000000E+00  0.000000E+00
       311  0.000000E+00  0.000000E+00  0.000000E+00
       312  0.000000E+00  0.000000E+00  0.000000E+00
       313  0.000000E+00  0.000000E+00  0.000000E+00
       314  0.000000E+00  0.000000E+00  0.000000E+00
       315  0.000000E+00  0.000000E+00  0.000000E+00
       316 -3.448015E-04 -4.458381E-05  1.082669E-02
       317 -2.707338E-04 -3.287290E-04  1.594199E-02
       318 -4.366740E-04 -1.327873E-04  1.652381E-02
       319 -2.237858E-04 -1.618299E-04  9.154145E-03
       320 -1.861853E-04 -4.732990E-04  1.409418E-02
       321  2.632770E-05 -6.052390E-04  1.413379E-02
       322  2.512291E-04 -5.252550E-04  9.610727E-03
       323  3.470160E-04 -4.559692E-04  8.999328E-03
       324  4.232891E-04 -5.487154E-04  8.837292E-03
       325  3.223635E-04 -5.640732E-04  5.428219E-03
       326  5.468716E-04  5.645311E-04  9.263676E-03
       327  3.984994E-04  4.318138E-04  7.982551E-03
       328  1.876632E-04  5.507089E-04  9.901054E-03
       329 -4.333612E-05 -8.256864E-05  2.220347E-03
       330  5.808997E-04 -1.359325E-04  2.863459E-03
       331  7.782639E-04 -2.819073E-05  9.665563E-04
       332  5.545010E-04  1.446849E-04 -2.839206E-03
       333  1.335897E-04  5.281707E-04 -1.051001E-02
       334  4.293414E-04  3.960007E-04 -7.521755E-03
       335 -9.191982E-05  5.061403E-04 -1.328142E-02
       336 -4.647729E-04  6.276432E-05 -1.615724E-02
       337 -4.449271E-04  2.422033E-04 -1.586148E-02
       338 -1.062100E-03 -5.301717E-04 -1.206577E-02
       339  0.000000E+00  0.000000E+00  0.000000E+00
       340  0.000000E+00  0.000000E+00  0.000000E+00
       341  0.000000E+00  0.000000E+00  0.000000E+00
       342  0.000000E+00  0.000000E+00  0.000000E+00
       343  5.398780E-04 -2.372831E-06 -3.229741E-04
       344  6.206332E-04 -4.058912E-04 -4.446142E-03
       345  8.140506E-04  1.680897E-04  2.714815E-03
       346  5.240382E-04  1.929121E-04  3.337180E-03
       347  4.696094E-04  3.421524E-04  4.058346E-03
       348  6.628123E-04  7.143233E-05  7.120662E-04
       349  6.279932E-04  5.106087E-04  5.153973E-03
       350  4.492458E-04  6.775567E-04  4.922487E-03
       351  6.339230E-04  5.241731E-04  6.105950E-03
       352  0.000000E+00  0.000000E+00  0.000000E+00
       353 -2.991947E-04 -8.495888E-04 -9.295658E-03
       354  3.871892E-05 -6.950666E-04 -1.309192E-02
       355  0.000000E+00  0.000000E+00  0.000000E+00
       356 -9.499798E-04 -6.450373E-04 -1.166108E-02
       357  0.000000E+00  0.000000E+00  0.000000E+00
       358  0.000000E+00  0.000000E+00  0.000000E+00
       359 -1.049475E-03 -1.678172E-04 -1.267989E-02
       360 -5.572232E-04  1.128459E-04 -1.735520E-02
       361  0.000000E+00  0.000000E+00  0.000000E+00
       362  0.000000E+00  0.000000E+00  0.000000E+00
       363 -8.328376E-04  5.778129E-04 -1.152030E-02
       364 -3.374751E-04  4.985973E-04 -1.563618E-02
       365 -2.137897E-04  8.843401E-04 -9.611325E-03
       366 -2.890246E-04  5.554853E-04 -1.521460E-02
       367  2.237094E-04  7.060382E-04 -1.102189E-02
       368 -2.318481E-04  7.943582E-04 -8.762963E-03
       369  3.332308E-04  6.771508E-04 -5.908263E-03
       370  7.606410E-04  3.919554E-04 -4.828574E-03
       371  5.033856E-04  2.562598E-04 -3.547147E-03
       372  4.234123E-04  6.228718E-04 -4.906814E-03
       373  0.000000E+00  0.000000E+00  0.000000E+00
       374  6.212148E-04  2.784516E-07 -6.871180E-04
       375  6.272266E-04 -3.919561E-04  4.659491E-03
       376  5.357931E-04 -2.711175E-04  3.581013E-03
       377  3.721001E-04 -4.771818E-04  4.355825E-03
       378  0.000000E+00  0.000000E+00  0.000000E+00
       379  2.954013E-04 -6.515351E-04  1.085439E-02
       380 -5.084910E-04 -1.695900E-04 -1.590480E-02
       381 -4.599103E-04 -2.468193E-04 -1.575651E-02
       382 -5.069951E-04 -4.336538E-04 -1.695092E-02
       383 -3.930736E-04 -9.053338E-05 -1.010493E-02
       384 -1.628952E-04 -5.028523E-04 -1.315233E-02
       385  3.997873E-04 -6.001232E-04 -5.242290E-03
       386  2.837688E-04 -4.240584E-04 -8.408910E-03
       387 -3.244444E-04 -1.497630E-04 -8.476811E-03
       388 -3.353814E-04 -4.210811E-04 -1.418677E-02
       389  5.304024E-04 -1.284670E-04 -2.402087E-03
       390  4.964560E-04 -2.269634E-04 -3.102261E-03
       391 -9.122538E-05 -5.264567E-05 -1.606009E-03
       392  4.771894E-04 -2.944466E-04 -4.501886E-03
       393  7.480280E-04 -5.139136E-05 -1.825374E-03
       394  7.662675E-04  1.699401E-05 -7.965327E-04
       395 -8.162869E-05  9.667493E-05  2.542178E-03
       396  4.420799E-04  4.071139E-04  5.411566E-03
       397 -2.492521E-04 -8.749104E-04  9.533976E-03
       398 -3.272568E-04 -5.338417E-04  1.594985E-02
       399 -2.674561E-04 -6.243477E-04  1.561155E-02
       400 -7.698235E-04 -6.096501E-04  1.173374E-02
       401 -8.453566E-04 -5.553379E-04  1.217835E-02
       402  6.509987E-05  6.959321E-04  1.377095E-02
       403 -2.264110E-04  8.435744E-04  1.001420E-02
       404  1.191092E-05  6.635720E-04  1.440407E-02
       405 -2.280800E-04  8.632028E-04  9.140149E-03
       406  0.000000E+00  0.000000E+00  0.000000E+00
       407  0.000000E+00  0.000000E+00  0.000000E+00
       408 -7.796625E-04  6.612640E-04  1.184302E-02
       409  1.532895E-05  5.655011E-04  1.295556E-02
       410 -2.889178E-04  1.591769E-04  9.294574E-03
       411 -1.010402E-04  5.259713E-04  1.388160E-02
       412 -2.068364E-04  5.106779E-04  1.425093E-02
       413 -7.912641E-04  6.299241E-04  1.220676E-02
       414 -5.980963E-04  1.434402E-04  1.770232E-02
       415 -4.256784E-04  1.201680E-04  1.660569E-02
       416 -5.260706E-04 -2.021996E-04  1.768641E-02
       417 -8.185382E-04  1.788296E-05  1.297772E-02
       418  0.000000E+00  0.000000E+00  0.000000E+00
       419 -9.154682E-04  3.807743E-05  1.281631E-02
       420  0.000000E+00  0.000000E+00  0.000000E+00
       421 -3.030578E-04 -1.454330E-04 -8.266678E-03
       422 -3.752907E-04  6.446070E-05 -9.862543E-03
       423 -2.706542E-04  1.365968E-04 -8.372832E-03
       424 -1.356602E-04 -1.156618E-04 -5.363641E-03
       425 -2.622552E-05  6.122841E-05 -1.841000E-03
       426 -9.486155E-05  1.341448E-04 -5.547738E-03
       427 -1.210134E-05 -9.190377E-05  2.195280E-03
       428 -1.422091E-04 -1.575893E-04  6.065710E-03
       429 -1.286041E-04  1.562543E-04  6.209774E-03
       430 -2.049870E-04 -1.586079E-04  8.965982E-03
       431  0.000000E+00  0.000000E+00  0.000000E+00
       432  0.000000E+00  0.000000E+00  0.000000E+00
       433  0.000000E+00  0.000000E+00  0.000000E+00
       434  0.000000E+00  0.000000E+00  0.000000E+00
       435  0.000000E+00  0.000000E+00  0.000000E+00
       436  0.000000E+00  0.000000E+00  0.000000E+00
       437  0.000000E+00  0.000000E+00  0.000000E+00
       438  0.000000E+00  0.000000E+00  0.000000E+00
       439  0.000000E+00  0.000000E+00  0.000000E+00
       440  0.000000E+00  0.000000E+00  0.000000E+00
       441  0.000000E+00  0.000000E+00  0.000000E+00
       442  0.000000E+00  0.000000E+00  0.000000E+00
       443  0.000000E+00  0.000000E+00  0.000000E+00
       444  0.000000E+00  0.000000E+00  0.000000E+00
       445  0.000000E+00  0.000000E+00  0.000000E+00
       446  0.000000E+00  0.000000E+00  0.000000E+00
       447  0.000000E+00  0.000000E+00  0.000000E+00
       448  0.000000E+00  0.000000E+00  0.000000E+00
       449  9.061896E-04 -3.401858E-04 -1.006537E-02
       450  8.755583E-04  2.652805E-04 -1.007980E-02
       451  8.836578E-04  1.680736E-03  1.505865E-02
       452  9.300766E-04  1.866490E-03  1.708764E-02
       453  4.695711E-03 -1.959530E-03  8.864427E-03
       454  4.541141E-03  1.907185E-03  9.248584E-03
       455  2.738441E-03  2.537395E-03  1.074127E-02
       456  2.832813E-03  2.678526E-03  1.439743E-02
       457  2.065774E-03 -7.968427E-05  1.370405E-02
       458  2.011908E-03  9.584016E-05  1.378543E-02
       459  2.658198E-03 -1.387997E-03  1.205459E-02
       460  2.643334E-03 -1.596426E-03  1.327412E-02
       461  4.641186E-03 -1.895738E-03  4.215385E-03
       462  2.589564E-03  1.244144E-03  1.218149E-02
       463  2.568413E-03  1.384010E-03  1.335836E-02
       464  4.524925E-03  1.833199E-03  4.729508E-03
       465  4.607460E-03 -1.682363E-03 -3.824127E-03
       466  3.535583E-03 -2.191896E-03 -6.683328E-03
       467  3.440254E-03 -2.219951E-03 -4.927506E-03
       468  5.252450E-03 -1.368781E-03 -6.161736E-03
       469  5.237677E-03 -1.239772E-03 -3.366278E-03
       470  4.675710E-03 -1.755955E-03 -8.518207E-03
       471  4.024367E-03 -2.005009E-03 -1.026183E-02
       472  4.018182E-03 -1.830536E-03 -7.980740E-03
       473  2.619416E-03 -1.417833E-03 -1.272814E-02
       474  2.513598E-03 -1.266882E-03 -1.155229E-02
       475  2.103445E-03 -7.118729E-05 -1.312015E-02
       476  1.960110E-03 -2.565191E-04 -1.324009E-02
       477  1.459924E-04 -4.592770E-05 -1.669544E-02
       478  1.488638E-04 -2.473711E-04 -1.694768E-02
       479 -1.984145E-03 -6.871289E-05 -1.536113E-02
       480 -1.935559E-03 -1.747664E-04 -1.546263E-02
       481  4.666546E-03  1.747747E-03 -8.919543E-03
       482  1.388912E-03 -3.184464E-03 -1.159473E-02
       483  1.316790E-03 -3.190258E-03 -1.019036E-02
       484 -1.070239E-03 -2.377821E-03 -1.476817E-02
       485 -1.018217E-03 -2.222485E-03 -1.401921E-02
       486  9.266670E-04 -1.881982E-03 -1.640396E-02
       487  8.747418E-04 -1.632394E-03 -1.458658E-02
       488  2.870615E-03 -2.705474E-03 -1.361734E-02
       489  2.790663E-03 -2.540413E-03 -1.001793E-02
       490  3.572252E-03  2.143616E-03 -7.236300E-03
       491  3.453685E-03  2.162173E-03 -5.470112E-03
       492  5.411749E-03  1.311882E-03 -6.519883E-03
       493  5.361526E-03  1.173581E-03 -3.639372E-03
       494  5.965847E-03  4.892011E-06 -1.518271E-03
       495  5.915708E-03 -1.483795E-04  1.645558E-03
       496  4.569318E-03 -1.251543E-05 -1.097174E-03
       497  4.575291E-03  4.146611E-05  9.166198E-04
       498  2.521344E-03  1.423223E-03 -1.289736E-02
       499  2.622393E-03  1.260385E-03 -1.176150E-02
       500  9.522132E-04  1.818228E-03 -1.646240E-02
       501  8.806504E-04  1.605627E-03 -1.470138E-02
       502 -1.045612E-03  2.437609E-03 -1.482339E-02
       503 -9.607698E-04  2.275369E-03 -1.405021E-02
       504  3.958070E-03  1.820119E-03 -1.042604E-02
       505  3.876455E-03  1.642770E-03 -8.258463E-03
       506  2.691918E-03  2.479495E-03 -1.369586E-02
       507  2.604243E-03  2.360355E-03 -1.040140E-02
       508  1.145785E-03  2.995986E-03 -1.179613E-02
       509  1.088479E-03  3.002654E-03 -1.054122E-02
       510  4.641512E-03  1.685681E-03 -4.360409E-03
       511  5.431991E-03 -1.282001E-04  2.467908E-03
       512  5.410873E-03 -1.376946E-03  3.746741E-03
       513  5.420679E-03 -1.539506E-03  6.729995E-03
       514  3.375633E-03 -2.334524E-03  5.149106E-03
       515  3.549013E-03 -2.241239E-03  6.979288E-03
       516  5.442638E-03  1.070347E-04  2.990120E-03
       517  4.401415E-03  1.243230E-04 -5.596621E-04
       518  5.883966E-03 -4.170910E-05 -1.120094E-03
       519  5.870814E-03  8.410642E-05  1.985117E-03
       520  4.432285E-03  3.170605E-05  1.409829E-03
       521  5.284863E-03  1.275522E-03  4.114595E-03
       522  5.351198E-03  1.471367E-03  7.042952E-03
       523  3.292594E-03  2.346689E-03  5.582226E-03
       524  3.456523E-03  2.271839E-03  7.372798E-03
       525  5.447195E-03  4.801154E-05 -2.120821E-03
       526  5.437774E-03 -5.524594E-05 -2.631334E-03
       527  4.110373E-03 -2.001681E-03  8.573352E-03
       528  4.076902E-03 -2.187078E-03  1.093821E-02
       529  3.963509E-03  1.810818E-03  8.808099E-03
       530  3.954261E-03  1.991284E-03  1.099326E-02
       531  2.804301E-03 -2.666256E-03  1.034691E-02
       532  2.908089E-03 -2.772839E-03  1.413483E-02
       533  8.923630E-04 -1.846331E-03  1.487744E-02
       534  9.173712E-04 -2.027920E-03  1.704687E-02
       535 -1.904491E-03 -5.494065E-05  1.566305E-02
       536 -1.952493E-03  6.663070E-05  1.572679E-02
       537 -1.006730E-03  2.241997E-03  1.436323E-02
       538 -1.058548E-03  2.403868E-03  1.514666E-02
       539  1.196725E-03  3.252432E-03  1.088387E-02
       540  1.313803E-03  3.331354E-03  1.237954E-02
       541  1.182153E-04  2.710815E-05  1.722803E-02
       542  1.429999E-04  2.520506E-04  1.751788E-02
       543  1.278605E-03 -3.333623E-03  1.039435E-02
       544  1.448732E-03 -3.346273E-03  1.188909E-02
       545 -9.885956E-04 -2.367955E-03  1.413065E-02
       546 -9.937719E-04 -2.505914E-03  1.500364E-02
       547 -1.683067E-03 -2.174111E-05 -1.300603E-02
       548 -1.707801E-03 -1.888944E-04 -1.310770E-02
       549 -7.805447E-04 -4.085129E-05 -1.567076E-02
       550 -5.795066E-04 -3.781634E-05 -1.717516E-02
       551  1.933991E-04 -2.834115E-05 -1.596842E-02
       552 -5.017879E-04 -8.400877E-05 -1.349019E-02
       553  9.236356E-04 -3.553120E-04 -1.018346E-02
       554  8.867014E-04  2.510158E-04 -1.020133E-02
       555 -4.549209E-04  7.207344E-05 -1.350664E-02
       556  2.395454E-04 -7.993213E-05 -1.606212E-02
       557 -6.155941E-04 -1.116581E-04 -1.727126E-02
       558 -8.266607E-04 -4.025308E-05 -1.574265E-02
       559  9.953492E-05 -7.357276E-05 -1.612854E-02
       560  1.147591E-04 -5.611229E-05 -1.596040E-02
       561 -4.624229E-04 -6.880834E-05 -1.730091E-02
       562 -4.388350E-04 -8.174317E-05 -1.717109E-02
       563 -4.812509E-04  8.649312E-05 -1.720575E-02
       564 -4.551402E-04 -1.167459E-04 -1.715036E-02