    1C
    1U meshsolid_t.inp                                                  
    1UUSER                                                              
    1UDATE              05.july.2016                                    
    1UTIME              09:16:12                                        
    1UHOST                                                              
    1UPGM               CalculiX                                        
    1UVERSION           Version 2.10                             
    1UCOMPILETIME       Sa 5. Mär 12:23:33 CET 2016                    
    1UDIR                                                               
    1UDBN                                                               
    1UMAT    1PDMS                                                      
    2C                          3746                                     1
 -1         1 2.32070E+00-4.61617E-01 2.25000E+00
 -1         2-7.15142E+00 3.99049E+00 2.25000E+00
 -1         3-5.06195E+00 1.58259E+00 2.25000E+00
 -1         4-7.69674E+00 2.67396E+00 2.25000E+00
 -1         5-5.24373E+00 1.14375E+00 2.25000E+00
 -1         6-7.87852E+00 2.23512E+00 2.25000E+00
 -1         7-2.89912E+00-4.51663E+00 2.25000E+00
 -1         8-2.89912E+00 4.51663E+00 2.25000E+00
 -1         9-5.41583E+00 6.08758E+00 2.25000E+00
 -1        10-6.08758E+00 5.41583E+00 2.25000E+00
 -1        11-5.28227E+00 4.74999E-01 2.25000E+00
 -1        12-2.32070E+00-4.61617E-01 2.25000E+00
 -1        13-2.38798E+00 4.74999E-01 2.25000E+00
 -1        14-4.69840E+00 2.46028E+00 2.25000E+00
 -1        15-2.23512E+00 7.87852E+00 2.25000E+00
 -1        16 1.14375E+00 5.24373E+00 2.25000E+00
 -1        17 4.68498E+00 1.00693E+01 2.25000E+00
 -1        18 1.58259E+00 5.06195E+00 2.25000E+00
 -1        19 2.46028E+00 4.69840E+00 2.25000E+00
 -1        20 1.31457E+00 1.96740E+00 2.25000E+00
 -1        21 4.74999E-01 2.38798E+00 2.25000E+00
 -1        22 2.02443E+00 1.35268E+00 2.25000E+00
 -1        23 3.39925E+00 4.07100E+00 2.25000E+00
 -1        24 2.38798E+00 4.74999E-01 2.25000E+00
 -1        25 2.32070E+00 4.61617E-01 2.25000E+00
 -1        26 2.38798E+00-4.74999E-01 2.25000E+00
 -1        27 5.28227E+00 4.74999E-01 2.25000E+00
 -1        28 5.28227E+00-4.74999E-01 2.25000E+00
 -1        29 1.10957E+01 4.74999E-01 2.25000E+00
 -1        30 8.13414E+00 4.74999E-01 2.25000E+00
 -1        31 3.55164E+00-7.33319E+00 2.25000E+00
 -1        32 5.41583E+00 6.08758E+00 2.25000E+00
 -1        33 7.87852E+00 2.23512E+00 2.25000E+00
 -1        34 7.15142E+00 3.99049E+00 2.25000E+00
 -1        35 5.06195E+00 1.58259E+00 2.25000E+00
 -1        36 6.42346E+00 5.07995E+00 2.25000E+00
 -1        37 1.58259E+00-5.06195E+00 2.25000E+00
 -1        38 2.46028E+00-4.69840E+00 2.25000E+00
 -1        39 2.67396E+00-7.69674E+00 2.25000E+00
 -1        40 1.35268E+00-2.02443E+00 2.25000E+00
 -1        41 4.74999E-01-2.38798E+00 2.25000E+00
 -1        42-4.74999E-01-2.38798E+00 2.25000E+00
 -1        43-4.74999E-01-5.28227E+00 2.25000E+00
 -1        44 4.69840E+00-2.46028E+00 2.25000E+00
 -1        45 1.96740E+00-1.31457E+00 2.25000E+00
 -1        46 7.69674E+00-2.67396E+00 2.25000E+00
 -1        47 5.06195E+00-1.58259E+00 2.25000E+00
 -1        48 7.33319E+00-3.55164E+00 2.25000E+00
 -1        49 3.39925E+00-4.07100E+00 2.25000E+00
 -1        50 2.02443E+00-1.35268E+00 2.25000E+00
 -1        51 4.07100E+00-3.39925E+00 2.25000E+00
 -1        52 5.41583E+00-6.08758E+00 2.25000E+00
 -1        53 5.07995E+00-6.42346E+00 2.25000E+00
 -1        54 6.08758E+00-5.41583E+00 2.25000E+00
 -1        55 7.50997E+00-8.18172E+00 2.25000E+00
 -1        56-4.74999E-01-8.13414E+00 2.25000E+00
 -1        57-1.35268E+00-2.02443E+00 2.25000E+00
 -1        58-3.55164E+00-7.33319E+00 2.25000E+00
 -1        59-2.67396E+00-7.69674E+00 2.25000E+00
 -1        60-3.80730E+00-1.04329E+01 2.25000E+00
 -1        61-4.68498E+00-1.00693E+01 2.25000E+00
 -1        62-9.50000E-01 8.13414E+00 2.25000E+00
 -1        63-9.50000E-01 5.28227E+00 2.25000E+00
 -1        64-4.74999E-01 5.28227E+00 2.25000E+00
 -1        65 4.74999E-01 1.10957E+01 2.25000E+00
 -1        66-4.74999E-01 8.13414E+00 2.25000E+00
 -1        67 4.61617E-01 2.32070E+00 2.25000E+00
 -1        68-4.74999E-01 2.38798E+00 2.25000E+00
 -1        69-1.31457E+00 1.96740E+00 2.25000E+00
 -1        70-1.58259E+00 5.06195E+00 2.25000E+00
 -1        71-2.67396E+00 7.69674E+00 2.25000E+00
 -1        72-3.80730E+00 1.04329E+01 2.25000E+00
 -1        73-4.68498E+00 1.00693E+01 2.25000E+00
 -1        74 4.74999E-01 8.13414E+00 2.25000E+00
 -1        75 9.50000E-01-8.13414E+00 2.25000E+00
 -1        76 9.50000E-01-5.28227E+00 2.25000E+00
 -1        77-1.96740E+00-1.31457E+00 2.25000E+00
 -1        78-3.39925E+00-4.07100E+00 2.25000E+00
 -1        79-4.07100E+00-3.39925E+00 2.25000E+00
 -1        80-1.35268E+00 2.02443E+00 2.25000E+00
 -1        81-2.02443E+00 1.35268E+00 2.25000E+00
 -1        82-3.39925E+00 4.07100E+00 2.25000E+00
 -1        83-3.06338E+00-4.40688E+00 2.25000E+00
 -1        84-5.07995E+00-6.42346E+00 2.25000E+00
 -1        85-6.08758E+00-5.41583E+00 2.25000E+00
 -1        86-4.69840E+00-2.46028E+00 2.25000E+00
 -1        87-5.06195E+00-1.58259E+00 2.25000E+00
 -1        88-5.24373E+00-1.14375E+00 2.25000E+00
 -1        89-7.33319E+00-3.55164E+00 2.25000E+00
 -1        90-7.69674E+00-2.67396E+00 2.25000E+00
 -1        91-1.00693E+01 4.68498E+00 2.25000E+00
 -1        92-1.04329E+01 3.80730E+00 2.25000E+00
 -1        93-8.18172E+00 7.50997E+00 2.25000E+00
 -1        94-8.13414E+00 4.74999E-01 2.25000E+00
 -1        95-8.13414E+00-9.50000E-01 2.25000E+00
 -1        96-7.50997E+00-8.18172E+00 2.25000E+00
 -1        97-1.00693E+01-4.68498E+00 2.25000E+00
 -1        98 1.10957E+01-4.74999E-01 5.00000E-01
 -1        99 8.13414E+00 4.74999E-01 5.00000E-01
 -1       100 5.28227E+00 4.74999E-01 5.00000E-01
 -1       101 2.38798E+00-4.74999E-01 5.00000E-01
 -1       102 1.10957E+01-4.74999E-01 2.25000E+00
 -1       103 5.28227E+00 9.50000E-01 2.25000E+00
 -1       104 8.13414E+00-4.74999E-01 5.00000E-01
 -1       105 8.13414E+00-4.74999E-01 2.25000E+00
 -1       106 5.28227E+00-9.50000E-01 5.00000E-01
 -1       107 5.28227E+00-9.50000E-01 2.25000E+00
 -1       108 8.13414E+00-9.50000E-01 2.25000E+00
 -1       109 8.13414E+00 9.50000E-01 5.00000E-01
 -1       110 8.13414E+00 9.50000E-01 2.25000E+00
 -1       111 1.96740E+00 1.31457E+00 2.25000E+00
 -1       112 2.32070E+00 4.61617E-01 5.00000E-01
 -1       113 1.04329E+01 3.80730E+00 2.25000E+00
 -1       114 7.33319E+00 3.55164E+00 2.25000E+00
 -1       115 1.00693E+01 4.68498E+00 2.25000E+00
 -1       116 7.33319E+00 3.55164E+00 5.00000E-01
 -1       117 4.69840E+00 2.46028E+00 2.25000E+00
 -1       118 7.69674E+00 2.67396E+00 2.25000E+00
 -1       119 5.06195E+00 1.58259E+00 5.00000E-01
 -1       120 4.51663E+00 2.89912E+00 2.25000E+00
 -1       121 4.51663E+00 2.89912E+00 5.00000E-01
 -1       122 7.69674E+00 2.67396E+00 5.00000E-01
 -1       123 5.24373E+00 1.14375E+00 2.25000E+00
 -1       124 7.15142E+00 3.99049E+00 5.00000E-01
 -1       125 7.50997E+00 8.18172E+00 5.00000E-01
 -1       126 5.41583E+00 6.08758E+00 5.00000E-01
 -1       127 7.50997E+00 8.18172E+00 2.25000E+00
 -1       128 1.35268E+00 2.02443E+00 5.00000E-01
 -1       129 8.18172E+00 7.50997E+00 2.25000E+00
 -1       130 6.08758E+00 5.41583E+00 2.25000E+00
 -1       131 4.07100E+00 3.39925E+00 2.25000E+00
 -1       132 4.07100E+00 3.39925E+00 5.00000E-01
 -1       133 3.39925E+00 4.07100E+00 5.00000E-01
 -1       134 5.07995E+00 6.42346E+00 5.00000E-01
 -1       135 6.42346E+00 5.07995E+00 5.00000E-01
 -1       136 4.40688E+00 3.06338E+00 2.25000E+00
 -1       137 3.06338E+00 4.40688E+00 2.25000E+00
 -1       138 5.07995E+00 6.42346E+00 2.25000E+00
 -1       139 3.06338E+00 4.40688E+00 5.00000E-01
 -1       140 4.61617E-01 2.32070E+00 5.00000E-01
 -1       141 3.80730E+00 1.04329E+01 2.25000E+00
 -1       142 3.80730E+00 1.04329E+01 5.00000E-01
 -1       143 2.67396E+00 7.69674E+00 2.25000E+00
 -1       144 2.46028E+00 4.69840E+00 5.00000E-01
 -1       145 1.35268E+00 2.02443E+00 2.25000E+00
 -1       146 2.89912E+00 4.51663E+00 2.25000E+00
 -1       147 3.55164E+00 7.33319E+00 2.25000E+00
 -1       148 3.99049E+00 7.15142E+00 2.25000E+00
 -1       149 3.55164E+00 7.33319E+00 5.00000E-01
 -1       150 2.67396E+00 7.69674E+00 5.00000E-01
 -1       151 3.99049E+00 7.15142E+00 5.00000E-01
 -1       152 2.23512E+00 7.87852E+00 2.25000E+00
 -1       153-4.61617E-01 2.32070E+00 5.00000E-01
 -1       154-4.61617E-01 2.32070E+00 2.25000E+00
 -1       155-4.74999E-01 1.10957E+01 2.25000E+00
 -1       156-4.74999E-01 8.13414E+00 5.00000E-01
 -1       157-4.74999E-01 5.28227E+00 5.00000E-01
 -1       158 4.74999E-01 5.28227E+00 5.00000E-01
 -1       159 4.74999E-01 5.28227E+00 2.25000E+00
 -1       160 9.50000E-01 5.28227E+00 2.25000E+00
 -1       161 9.50000E-01 8.13414E+00 2.25000E+00
 -1       162-4.68498E+00 1.00693E+01 5.00000E-01
 -1       163-3.55164E+00 7.33319E+00 5.00000E-01
 -1       164-3.55164E+00 7.33319E+00 2.25000E+00
 -1       165-2.46028E+00 4.69840E+00 2.25000E+00
 -1       166-2.89912E+00 4.51663E+00 5.00000E-01
 -1       167-1.14375E+00 5.24373E+00 2.25000E+00
 -1       168-3.99049E+00 7.15142E+00 2.25000E+00
 -1       169-1.96740E+00 1.31457E+00 2.25000E+00
 -1       170-3.39925E+00 4.07100E+00 5.00000E-01
 -1       171-1.35268E+00 2.02443E+00 5.00000E-01
 -1       172-7.50997E+00 8.18172E+00 2.25000E+00
 -1       173-4.07100E+00 3.39925E+00 2.25000E+00
 -1       174-4.40688E+00 3.06338E+00 2.25000E+00
 -1       175-5.41583E+00 6.08758E+00 5.00000E-01
 -1       176-3.06338E+00 4.40688E+00 2.25000E+00
 -1       177-5.07995E+00 6.42346E+00 2.25000E+00
 -1       178-5.07995E+00 6.42346E+00 5.00000E-01
 -1       179-6.42346E+00 5.07995E+00 2.25000E+00
 -1       180-1.96740E+00 1.31457E+00 5.00000E-01
 -1       181-2.32070E+00 4.61617E-01 2.25000E+00
 -1       182-2.32070E+00 4.61617E-01 5.00000E-01
 -1       183-7.69674E+00 2.67396E+00 5.00000E-01
 -1       184-5.06195E+00 1.58259E+00 5.00000E-01
 -1       185-4.69840E+00 2.46028E+00 5.00000E-01
 -1       186-5.24373E+00 1.14375E+00 5.00000E-01
 -1       187-7.33319E+00 3.55164E+00 5.00000E-01
 -1       188-7.33319E+00 3.55164E+00 2.25000E+00
 -1       189-4.51663E+00 2.89912E+00 2.25000E+00
 -1       190-7.15142E+00 3.99049E+00 5.00000E-01
 -1       191-7.87852E+00 2.23512E+00 5.00000E-01
 -1       192-1.10957E+01-4.74999E-01 2.25000E+00
 -1       193-5.28227E+00-4.74999E-01 5.00000E-01
 -1       194-5.28227E+00-4.74999E-01 2.25000E+00
 -1       195-2.38798E+00-4.74999E-01 2.25000E+00
 -1       196-2.38798E+00 4.74999E-01 5.00000E-01
 -1       197-8.13414E+00 4.74999E-01 5.00000E-01
 -1       198-1.10957E+01 4.74999E-01 2.25000E+00
 -1       199-5.28227E+00 9.50000E-01 5.00000E-01
 -1       200-5.28227E+00-9.50000E-01 2.25000E+00
 -1       201-8.13414E+00-4.74999E-01 5.00000E-01
 -1       202-8.13414E+00-4.74999E-01 2.25000E+00
 -1       203-5.28227E+00 9.50000E-01 2.25000E+00
 -1       204-8.13414E+00 9.50000E-01 2.25000E+00
 -1       205-2.32070E+00-4.61617E-01 5.00000E-01
 -1       206-1.04329E+01-3.80730E+00 2.25000E+00
 -1       207-2.02443E+00-1.35268E+00 2.25000E+00
 -1       208-4.69840E+00-2.46028E+00 5.00000E-01
 -1       209-5.24373E+00-1.14375E+00 5.00000E-01
 -1       210-7.87852E+00-2.23512E+00 5.00000E-01
 -1       211-7.69674E+00-2.67396E+00 5.00000E-01
 -1       212-7.15142E+00-3.99049E+00 2.25000E+00
 -1       213-7.87852E+00-2.23512E+00 2.25000E+00
 -1       214-4.51663E+00-2.89912E+00 2.25000E+00
 -1       215-8.18172E+00-7.50997E+00 2.25000E+00
 -1       216-5.41583E+00-6.08758E+00 5.00000E-01
 -1       217-7.50997E+00-8.18172E+00 5.00000E-01
 -1       218-4.40688E+00-3.06338E+00 5.00000E-01
 -1       219-4.07100E+00-3.39925E+00 5.00000E-01
 -1       220-3.39925E+00-4.07100E+00 5.00000E-01
 -1       221-6.42346E+00-5.07995E+00 2.25000E+00
 -1       222-6.08758E+00-5.41583E+00 5.00000E-01
 -1       223-5.41583E+00-6.08758E+00 2.25000E+00
 -1       224-4.40688E+00-3.06338E+00 2.25000E+00
 -1       225-1.31457E+00-1.96740E+00 2.25000E+00
 -1       226-1.58259E+00-5.06195E+00 2.25000E+00
 -1       227-1.58259E+00-5.06195E+00 5.00000E-01
 -1       228-2.46028E+00-4.69840E+00 5.00000E-01
 -1       229-1.35268E+00-2.02443E+00 5.00000E-01
 -1       230-2.46028E+00-4.69840E+00 2.25000E+00
 -1       231-3.99049E+00-7.15142E+00 2.25000E+00
 -1       232-3.55164E+00-7.33319E+00 5.00000E-01
 -1       233-2.67396E+00-7.69674E+00 5.00000E-01
 -1       234-1.14375E+00-5.24373E+00 2.25000E+00
 -1       235-2.23512E+00-7.87852E+00 2.25000E+00
 -1       236 4.61617E-01-2.32070E+00 2.25000E+00
 -1       237-4.61617E-01-2.32070E+00 2.25000E+00
 -1       238 4.74999E-01-1.10957E+01 2.25000E+00
 -1       239-4.74999E-01-1.10957E+01 2.25000E+00
 -1       240 4.74999E-01-5.28227E+00 2.25000E+00
 -1       241 4.74999E-01-2.38798E+00 5.00000E-01
 -1       242-4.74999E-01-1.10957E+01 5.00000E-01
 -1       243-4.74999E-01-5.28227E+00 5.00000E-01
 -1       244 4.74999E-01-5.28227E+00 5.00000E-01
 -1       245-9.50000E-01-8.13414E+00 5.00000E-01
 -1       246-9.50000E-01-8.13414E+00 2.25000E+00
 -1       247 4.74999E-01-8.13414E+00 2.25000E+00
 -1       248 4.74999E-01-8.13414E+00 5.00000E-01
 -1       249 9.50000E-01-8.13414E+00 5.00000E-01
 -1       250-9.50000E-01-5.28227E+00 2.25000E+00
 -1       251 3.80730E+00-1.04329E+01 2.25000E+00
 -1       252 4.68498E+00-1.00693E+01 2.25000E+00
 -1       253 1.35268E+00-2.02443E+00 5.00000E-01
 -1       254 1.58259E+00-5.06195E+00 5.00000E-01
 -1       255 2.89912E+00-4.51663E+00 5.00000E-01
 -1       256 2.89912E+00-4.51663E+00 2.25000E+00
 -1       257 2.23512E+00-7.87852E+00 2.25000E+00
 -1       258 2.67396E+00-7.69674E+00 5.00000E-01
 -1       259 3.55164E+00-7.33319E+00 5.00000E-01
 -1       260 3.99049E+00-7.15142E+00 2.25000E+00
 -1       261 3.99049E+00-7.15142E+00 5.00000E-01
 -1       262 1.14375E+00-5.24373E+00 2.25000E+00
 -1       263 1.31457E+00-1.96740E+00 2.25000E+00
 -1       264 8.18172E+00-7.50997E+00 2.25000E+00
 -1       265 6.08758E+00-5.41583E+00 5.00000E-01
 -1       266 5.41583E+00-6.08758E+00 5.00000E-01
 -1       267 4.07100E+00-3.39925E+00 5.00000E-01
 -1       268 4.40688E+00-3.06338E+00 2.25000E+00
 -1       269 3.06338E+00-4.40688E+00 2.25000E+00
 -1       270 3.06338E+00-4.40688E+00 5.00000E-01
 -1       271 6.42346E+00-5.07995E+00 2.25000E+00
 -1       272 6.42346E+00-5.07995E+00 5.00000E-01
 -1       273 1.04329E+01-3.80730E+00 2.25000E+00
 -1       274 1.04329E+01-3.80730E+00 5.00000E-01
 -1       275 1.00693E+01-4.68498E+00 2.25000E+00
 -1       276 7.69674E+00-2.67396E+00 5.00000E-01
 -1       277 2.02443E+00-1.35268E+00 5.00000E-01
 -1       278 4.51663E+00-2.89912E+00 5.00000E-01
 -1       279 4.69840E+00-2.46028E+00 5.00000E-01
 -1       280 4.51663E+00-2.89912E+00 2.25000E+00
 -1       281 5.24373E+00-1.14375E+00 2.25000E+00
 -1       282 5.06195E+00-1.58259E+00 5.00000E-01
 -1       283 7.15142E+00-3.99049E+00 2.25000E+00
 -1       284 7.87852E+00-2.23512E+00 5.00000E-01
 -1       285 7.87852E+00-2.23512E+00 2.25000E+00
 -1       286 1.50000E+01 0.00000E+00-5.00000E-01
 -1       287-1.47118E+01 2.92635E+00 5.00000E-01
 -1       288 0.00000E+00 1.50000E+01 5.00000E-01
 -1       289 0.00000E+00 1.50000E+01-5.00000E-01
 -1       290-2.92635E+00-1.47118E+01-5.00000E-01
 -1       291 0.00000E+00-1.50000E+01 5.00000E-01
 -1       292-8.33355E+00 1.24720E+01-5.00000E-01
 -1       293-1.06066E+01 1.06066E+01-5.00000E-01
 -1       294-5.74025E+00 1.38582E+01 5.00000E-01
 -1       295-5.74025E+00 1.38582E+01-5.00000E-01
 -1       296 1.24720E+01-8.33355E+00-5.00000E-01
 -1       297 1.24720E+01 8.33355E+00-5.00000E-01
 -1       298 8.33355E+00-1.24720E+01-5.00000E-01
 -1       299 8.33355E+00 1.24720E+01-5.00000E-01
 -1       300 5.74025E+00-1.38582E+01-5.00000E-01
 -1       301 5.74025E+00 1.38582E+01-5.00000E-01
 -1       302 2.92635E+00 1.47118E+01-5.00000E-01
 -1       303 0.00000E+00-1.50000E+01-5.00000E-01
 -1       304-2.92635E+00 1.47118E+01-5.00000E-01
 -1       305-8.33355E+00-1.24720E+01-5.00000E-01
 -1       306-1.47118E+01-2.92635E+00-5.00000E-01
 -1       307 1.38582E+01 5.74025E+00 5.00000E-01
 -1       308 1.38582E+01 5.74025E+00-5.00000E-01
 -1       309 1.47118E+01 2.92635E+00 5.00000E-01
 -1       310 1.47118E+01 2.92635E+00-5.00000E-01
 -1       311 1.06066E+01 1.06066E+01-5.00000E-01
 -1       312-1.38582E+01 5.74025E+00-5.00000E-01
 -1       313-1.24720E+01 8.33355E+00-5.00000E-01
 -1       314-1.38582E+01 5.74025E+00 5.00000E-01
 -1       315-1.47118E+01 2.92635E+00-5.00000E-01
 -1       316-2.38798E+00-4.74999E-01 5.00000E-01
 -1       317-5.06195E+00-1.58259E+00 5.00000E-01
 -1       318-5.28227E+00-9.50000E-01 5.00000E-01
 -1       319-2.02443E+00-1.35268E+00 5.00000E-01
 -1       320-4.51663E+00-2.89912E+00 5.00000E-01
 -1       321-6.42346E+00-5.07995E+00 5.00000E-01
 -1       322-3.06338E+00-4.40688E+00 5.00000E-01
 -1       323-2.89912E+00-4.51663E+00 5.00000E-01
 -1       324-3.99049E+00-7.15142E+00 5.00000E-01
 -1       325-4.68498E+00-1.00693E+01 5.00000E-01
 -1       326-3.99049E+00 7.15142E+00 5.00000E-01
 -1       327-2.46028E+00 4.69840E+00 5.00000E-01
 -1       328-3.06338E+00 4.40688E+00 5.00000E-01
 -1       329-4.74999E-01-2.38798E+00 5.00000E-01
 -1       330-9.50000E-01-5.28227E+00 5.00000E-01
 -1       331-4.74999E-01-8.13414E+00 5.00000E-01
 -1       332 9.50000E-01-5.28227E+00 5.00000E-01
 -1       333 3.39925E+00-4.07100E+00 5.00000E-01
 -1       334 2.46028E+00-4.69840E+00 5.00000E-01
 -1       335 4.40688E+00-3.06338E+00 5.00000E-01
 -1       336 5.28227E+00-4.74999E-01 5.00000E-01
 -1       337 5.24373E+00-1.14375E+00 5.00000E-01
 -1       338 1.04329E+01 3.80730E+00 5.00000E-01
 -1       339 1.06066E+01 1.06066E+01 5.00000E-01
 -1       340 8.33355E+00 1.24720E+01 5.00000E-01
 -1       341 5.74025E+00 1.38582E+01 5.00000E-01
 -1       342 2.92635E+00 1.47118E+01 5.00000E-01
 -1       343 4.74999E-01 1.10957E+01 5.00000E-01
 -1       344 2.23512E+00 7.87852E+00 5.00000E-01
 -1       345-9.50000E-01 8.13414E+00 5.00000E-01
 -1       346-9.50000E-01 5.28227E+00 5.00000E-01
 -1       347-1.14375E+00 5.24373E+00 5.00000E-01
 -1       348-4.74999E-01 1.10957E+01 5.00000E-01
 -1       349-2.23512E+00 7.87852E+00 5.00000E-01
 -1       350-3.80730E+00 1.04329E+01 5.00000E-01
 -1       351-2.67396E+00 7.69674E+00 5.00000E-01
 -1       352-8.33355E+00 1.24720E+01 5.00000E-01
 -1       353 8.18172E+00 7.50997E+00 5.00000E-01
 -1       354 6.08758E+00 5.41583E+00 5.00000E-01
 -1       355 1.50000E+01 0.00000E+00 5.00000E-01
 -1       356 1.00693E+01 4.68498E+00 5.00000E-01
 -1       357 1.24720E+01 8.33355E+00 5.00000E-01
 -1       358 1.47118E+01-2.92635E+00 5.00000E-01
 -1       359 1.10957E+01 4.74999E-01 5.00000E-01
 -1       360 8.13414E+00-9.50000E-01 5.00000E-01
 -1       361 1.24720E+01-8.33355E+00 5.00000E-01
 -1       362 1.06066E+01-1.06066E+01 5.00000E-01
 -1       363 1.00693E+01-4.68498E+00 5.00000E-01
 -1       364 7.33319E+00-3.55164E+00 5.00000E-01
 -1       365 8.18172E+00-7.50997E+00 5.00000E-01
 -1       366 7.15142E+00-3.99049E+00 5.00000E-01
 -1       367 5.07995E+00-6.42346E+00 5.00000E-01
 -1       368 7.50997E+00-8.18172E+00 5.00000E-01
 -1       369 4.68498E+00-1.00693E+01 5.00000E-01
 -1       370 2.23512E+00-7.87852E+00 5.00000E-01
 -1       371 1.14375E+00-5.24373E+00 5.00000E-01
 -1       372 3.80730E+00-1.04329E+01 5.00000E-01
 -1       373 2.92635E+00-1.47118E+01 5.00000E-01
 -1       374 4.74999E-01-1.10957E+01 5.00000E-01
 -1       375-2.23512E+00-7.87852E+00 5.00000E-01
 -1       376-1.14375E+00-5.24373E+00 5.00000E-01
 -1       377-3.80730E+00-1.04329E+01 5.00000E-01
 -1       378-2.92635E+00-1.47118E+01 5.00000E-01
 -1       379-5.07995E+00-6.42346E+00 5.00000E-01
 -1       380 5.28227E+00 9.50000E-01 5.00000E-01
 -1       381 5.24373E+00 1.14375E+00 5.00000E-01
 -1       382 7.87852E+00 2.23512E+00 5.00000E-01
 -1       383 2.38798E+00 4.74999E-01 5.00000E-01
 -1       384 4.40688E+00 3.06338E+00 5.00000E-01
 -1       385 4.68498E+00 1.00693E+01 5.00000E-01
 -1       386 2.89912E+00 4.51663E+00 5.00000E-01
 -1       387 2.02443E+00 1.35268E+00 5.00000E-01
 -1       388 4.69840E+00 2.46028E+00 5.00000E-01
 -1       389 9.50000E-01 5.28227E+00 5.00000E-01
 -1       390 1.14375E+00 5.24373E+00 5.00000E-01
 -1       391 4.74999E-01 2.38798E+00 5.00000E-01
 -1       392 1.58259E+00 5.06195E+00 5.00000E-01
 -1       393 9.50000E-01 8.13414E+00 5.00000E-01
 -1       394 4.74999E-01 8.13414E+00 5.00000E-01
 -1       395-4.74999E-01 2.38798E+00 5.00000E-01
 -1       396-1.58259E+00 5.06195E+00 5.00000E-01
 -1       397-8.18172E+00-7.50997E+00 5.00000E-01
 -1       398-7.33319E+00-3.55164E+00 5.00000E-01
 -1       399-7.15142E+00-3.99049E+00 5.00000E-01
 -1       400-1.00693E+01-4.68498E+00 5.00000E-01
 -1       401-1.04329E+01-3.80730E+00 5.00000E-01
 -1       402-6.08758E+00 5.41583E+00 5.00000E-01
 -1       403-8.18172E+00 7.50997E+00 5.00000E-01
 -1       404-6.42346E+00 5.07995E+00 5.00000E-01
 -1       405-7.50997E+00 8.18172E+00 5.00000E-01
 -1       406-1.06066E+01 1.06066E+01 5.00000E-01
 -1       407-1.24720E+01 8.33355E+00 5.00000E-01
 -1       408-1.00693E+01 4.68498E+00 5.00000E-01
 -1       409-4.07100E+00 3.39925E+00 5.00000E-01
 -1       410-2.02443E+00 1.35268E+00 5.00000E-01
 -1       411-4.40688E+00 3.06338E+00 5.00000E-01
 -1       412-4.51663E+00 2.89912E+00 5.00000E-01
 -1       413-1.04329E+01 3.80730E+00 5.00000E-01
 -1       414-8.13414E+00 9.50000E-01 5.00000E-01
 -1       415-5.28227E+00 4.74999E-01 5.00000E-01
 -1       416-8.13414E+00-9.50000E-01 5.00000E-01
 -1       417-1.10957E+01 4.74999E-01 5.00000E-01
 -1       418-1.24720E+01-8.33355E+00 5.00000E-01
 -1       419-1.10957E+01-4.74999E-01 5.00000E-01
 -1       420-1.50000E+01 0.00000E+00 5.00000E-01
 -1       421 1.96740E+00 1.31457E+00 5.00000E-01
 -1       422 2.32070E+00-4.61617E-01 5.00000E-01
 -1       423 1.96740E+00-1.31457E+00 5.00000E-01
 -1       424 1.31457E+00 1.96740E+00 5.00000E-01
 -1       425 4.61617E-01-2.32070E+00 5.00000E-01
 -1       426 1.31457E+00-1.96740E+00 5.00000E-01
 -1       427-4.61617E-01-2.32070E+00 5.00000E-01
 -1       428-1.31457E+00-1.96740E+00 5.00000E-01
 -1       429-1.31457E+00 1.96740E+00 5.00000E-01
 -1       430-1.96740E+00-1.31457E+00 5.00000E-01
 -1       431-2.92635E+00 1.47118E+01 5.00000E-01
 -1       432 8.33355E+00-1.24720E+01 5.00000E-01
 -1       433-1.38582E+01-5.74025E+00-5.00000E-01
 -1       434-1.38582E+01-5.74025E+00 5.00000E-01
 -1       435-1.24720E+01-8.33355E+00-5.00000E-01
 -1       436-1.06066E+01-1.06066E+01-5.00000E-01
 -1       437-1.06066E+01-1.06066E+01 5.00000E-01
 -1       438-1.50000E+01 0.00000E+00-5.00000E-01
 -1       439 5.74025E+00-1.38582E+01 5.00000E-01
 -1       440 2.92635E+00-1.47118E+01-5.00000E-01
 -1       441 1.06066E+01-1.06066E+01-5.00000E-01
 -1       442-5.74025E+00-1.38582E+01 5.00000E-01
 -1       443-8.33355E+00-1.24720E+01 5.00000E-01
 -1       444-5.74025E+00-1.38582E+01-5.00000E-01
 -1       445-1.47118E+01-2.92635E+00 5.00000E-01
 -1       446 1.47118E+01-2.92635E+00-5.00000E-01
 -1       447 1.38582E+01-5.74025E+00 5.00000E-01
 -1       448 1.38582E+01-5.74025E+00-5.00000E-01
 -1       449 2.32070E+00 4.61617E-01 1.37500E+00
 -1       450 2.32070E+00-4.61617E-01 1.37500E+00
 -1       451-5.83402E+00 3.44480E+00 2.25000E+00
 -1       452-6.56112E+00 1.68944E+00 2.25000E+00
 -1       453-3.44480E+00-5.83402E+00 2.25000E+00
 -1       454-3.44480E+00 5.83402E+00 2.25000E+00
 -1       455-4.07166E+00 5.41517E+00 2.25000E+00
 -1       456-5.41517E+00 4.07166E+00 2.25000E+00
 -1       457-3.83512E+00 4.74999E-01 2.25000E+00
 -1       458-3.83512E+00-4.74999E-01 2.25000E+00
 -1       459-3.36141E+00-1.90648E+00 2.25000E+00
 -1       460-3.72497E+00-1.02879E+00 2.25000E+00
 -1       461-1.68944E+00-6.56112E+00 2.25000E+00
 -1       462-3.36141E+00 1.90648E+00 2.25000E+00
 -1       463-3.72497E+00 1.02879E+00 2.25000E+00
 -1       464-1.68944E+00 6.56112E+00 2.25000E+00
 -1       465 1.68944E+00 6.56112E+00 2.25000E+00
 -1       466 4.11831E+00 8.70125E+00 2.25000E+00
 -1       467 3.24063E+00 9.06482E+00 2.25000E+00
 -1       468 1.90648E+00 3.36141E+00 2.25000E+00
 -1       469 1.02879E+00 3.72497E+00 2.25000E+00
 -1       470 3.44480E+00 5.83402E+00 2.25000E+00
 -1       471 3.04771E+00 2.37597E+00 2.25000E+00
 -1       472 2.37597E+00 3.04771E+00 2.25000E+00
 -1       473 3.72497E+00 1.02879E+00 2.25000E+00
 -1       474 3.36141E+00 1.90648E+00 2.25000E+00
 -1       475 3.83512E+00 4.74999E-01 2.25000E+00
 -1       476 3.83512E+00-4.74999E-01 2.25000E+00
 -1       477 6.70821E+00 9.50000E-01 2.25000E+00
 -1       478 6.70821E+00-9.50000E-01 2.25000E+00
 -1       479 9.61492E+00 4.74999E-01 2.25000E+00
 -1       480 9.61492E+00-4.74999E-01 2.25000E+00
 -1       481 3.44480E+00-5.83402E+00 2.25000E+00
 -1       482 7.13465E+00 6.46290E+00 2.25000E+00
 -1       483 6.46290E+00 7.13465E+00 2.25000E+00
 -1       484 9.06482E+00 3.24063E+00 2.25000E+00
 -1       485 8.70125E+00 4.11831E+00 2.25000E+00
 -1       486 6.56112E+00 1.68944E+00 2.25000E+00
 -1       487 5.83402E+00 3.44480E+00 2.25000E+00
 -1       488 5.41517E+00 4.07166E+00 2.25000E+00
 -1       489 4.07166E+00 5.41517E+00 2.25000E+00
 -1       490 4.11831E+00-8.70125E+00 2.25000E+00
 -1       491 3.24063E+00-9.06482E+00 2.25000E+00
 -1       492 1.90648E+00-3.36141E+00 2.25000E+00
 -1       493 1.02879E+00-3.72497E+00 2.25000E+00
 -1       494 4.74999E-01-3.83512E+00 2.25000E+00
 -1       495-4.74999E-01-3.83512E+00 2.25000E+00
 -1       496 4.74999E-01-9.61492E+00 2.25000E+00
 -1       497-4.74999E-01-9.61492E+00 2.25000E+00
 -1       498 3.72497E+00-1.02879E+00 2.25000E+00
 -1       499 3.36141E+00-1.90648E+00 2.25000E+00
 -1       500 6.56112E+00-1.68944E+00 2.25000E+00
 -1       501 5.83402E+00-3.44480E+00 2.25000E+00
 -1       502 9.06482E+00-3.24063E+00 2.25000E+00
 -1       503 8.70125E+00-4.11831E+00 2.25000E+00
 -1       504 3.04771E+00-2.37597E+00 2.25000E+00
 -1       505 2.37597E+00-3.04771E+00 2.25000E+00
 -1       506 5.41517E+00-4.07166E+00 2.25000E+00
 -1       507 4.07166E+00-5.41517E+00 2.25000E+00
 -1       508 7.13465E+00-6.46290E+00 2.25000E+00
 -1       509 6.46290E+00-7.13465E+00 2.25000E+00
 -1       510 1.68944E+00-6.56112E+00 2.25000E+00
 -1       511-9.50000E-01-6.70821E+00 2.25000E+00
 -1       512-1.02879E+00-3.72497E+00 2.25000E+00
 -1       513-1.90648E+00-3.36141E+00 2.25000E+00
 -1       514-3.24063E+00-9.06482E+00 2.25000E+00
 -1       515-4.11831E+00-8.70125E+00 2.25000E+00
 -1       516-9.50000E-01 6.70821E+00 2.25000E+00
 -1       517 4.74999E-01 9.61492E+00 2.25000E+00
 -1       518 4.74999E-01 3.83512E+00 2.25000E+00
 -1       519-4.74999E-01 3.83512E+00 2.25000E+00
 -1       520-4.74999E-01 9.61492E+00 2.25000E+00
 -1       521-1.02879E+00 3.72497E+00 2.25000E+00
 -1       522-1.90648E+00 3.36141E+00 2.25000E+00
 -1       523-3.24063E+00 9.06482E+00 2.25000E+00
 -1       524-4.11831E+00 8.70125E+00 2.25000E+00
 -1       525 9.50000E-01 6.70821E+00 2.25000E+00
 -1       526 9.50000E-01-6.70821E+00 2.25000E+00
 -1       527-2.37597E+00-3.04771E+00 2.25000E+00
 -1       528-3.04771E+00-2.37597E+00 2.25000E+00
 -1       529-2.37597E+00 3.04771E+00 2.25000E+00
 -1       530-3.04771E+00 2.37597E+00 2.25000E+00
 -1       531-4.07166E+00-5.41517E+00 2.25000E+00
 -1       532-5.41517E+00-4.07166E+00 2.25000E+00
 -1       533-5.83402E+00-3.44480E+00 2.25000E+00
 -1       534-6.56112E+00-1.68944E+00 2.25000E+00
 -1       535-9.61492E+00 4.74999E-01 2.25000E+00
 -1       536-9.61492E+00-4.74999E-01 2.25000E+00
 -1       537-8.70125E+00 4.11831E+00 2.25000E+00
 -1       538-9.06482E+00 3.24063E+00 2.25000E+00
 -1       539-6.46290E+00 7.13465E+00 2.25000E+00
 -1       540-7.13465E+00 6.46290E+00 2.25000E+00
 -1       541-6.70821E+00 9.50000E-01 2.25000E+00
 -1       542-6.70821E+00-9.50000E-01 2.25000E+00
 -1       543-6.46290E+00-7.13465E+00 2.25000E+00
 -1       544-7.13465E+00-6.46290E+00 2.25000E+00
 -1       545-8.70125E+00-4.11831E+00 2.25000E+00
 -1       546-9.06482E+00-3.24063E+00 2.25000E+00
 -1       547 1.10957E+01 4.74999E-01 1.37500E+00
 -1       548 1.10957E+01-4.74999E-01 1.37500E+00
 -1       549 9.61492E+00 4.74999E-01 5.00000E-01
 -1       550 8.13414E+00 4.74999E-01 1.37500E+00
 -1       551 5.28227E+00 4.74999E-01 1.37500E+00
 -1       552 3.83512E+00 4.74999E-01 5.00000E-01
 -1       553 2.38798E+00 4.74999E-01 1.37500E+00
 -1       554 2.38798E+00-4.74999E-01 1.37500E+00
 -1       555 3.83512E+00-4.74999E-01 5.00000E-01
 -1       556 5.28227E+00-4.74999E-01 1.37500E+00
 -1       557 8.13414E+00-4.74999E-01 1.37500E+00
 -1       558 9.61492E+00-4.74999E-01 5.00000E-01
 -1       559 5.28227E+00-9.50000E-01 1.37500E+00
 -1       560 5.28227E+00 9.50000E-01 1.37500E+00
 -1       561 8.13414E+00-9.50000E-01 1.37500E+00
 -1       562 8.13414E+00 9.50000E-01 1.37500E+00
 -1       563 6.70821E+00-9.50000E-01 5.00000E-01
 -1       564 6.70821E+00 9.50000E-01 5.00000E-01
 -1       565 1.96740E+00 1.31457E+00 1.37500E+00
 -1       566 1.00693E+01 4.68498E+00 1.37500E+00
 -1       567 1.04329E+01 3.80730E+00 1.37500E+00
 -1       568 8.70125E+00 4.11831E+00 5.00000E-01
 -1       569 7.33319E+00 3.55164E+00 1.37500E+00
 -1       570 4.69840E+00 2.46028E+00 1.37500E+00
 -1       571 3.36141E+00 1.90648E+00 5.00000E-01
 -1       572 2.02443E+00 1.35268E+00 1.37500E+00
 -1       573 3.72497E+00 1.02879E+00 5.00000E-01
 -1       574 5.06195E+00 1.58259E+00 1.37500E+00
 -1       575 7.69674E+00 2.67396E+00 1.37500E+00
 -1       576 9.06482E+00 3.24063E+00 5.00000E-01
 -1       577 5.24373E+00 1.14375E+00 1.37500E+00
 -1       578 4.51663E+00 2.89912E+00 1.37500E+00
 -1       579 7.87852E+00 2.23512E+00 1.37500E+00
 -1       580 7.15142E+00 3.99049E+00 1.37500E+00
 -1       581 6.56112E+00 1.68944E+00 5.00000E-01
 -1       582 5.83402E+00 3.44480E+00 5.00000E-01