    1C
    1U meshsolid_t.inp                                                  
    1UUSER                                                              
    1UDATE              05.july.2016                                    
    1UTIME              01:20:14                                        
    1UHOST                                                              
    1UPGM               CalculiX                                        
    1UVERSION           Version 2.10                             
    1UCOMPILETIME       Sa 5. Mär 12:23:33 CET 2016                    
    1UDIR                                                               
    1UDBN                                                               
    1UMAT    1PDMS                                                      
    2C                          4030                                     1
 -1         1 2.32070E+00-4.61617E-01 5.00000E-01
 -1         2 2.32070E+00-4.61617E-01 2.45000E+00
 -1         3-5.06195E+00 1.58259E+00 2.45000E+00
 -1         4-7.69674E+00 2.67396E+00 2.45000E+00
 -1         5-5.24373E+00 1.14375E+00 2.45000E+00
 -1         6-7.87852E+00 2.23512E+00 2.45000E+00
 -1         7-2.89912E+00 4.51663E+00 2.45000E+00
 -1         8-5.41583E+00 6.08758E+00 2.45000E+00
 -1         9-5.28227E+00 4.74999E-01 2.45000E+00
 -1        10-5.28227E+00-4.74999E-01 2.45000E+00
 -1        11-2.32070E+00-4.61617E-01 2.45000E+00
 -1        12-2.38798E+00 4.74999E-01 2.45000E+00
 -1        13-4.69840E+00 2.46028E+00 2.45000E+00
 -1        14 1.14375E+00 5.24373E+00 2.45000E+00
 -1        15 4.68498E+00 1.00693E+01 2.45000E+00
 -1        16 1.58259E+00 5.06195E+00 2.45000E+00
 -1        17 2.46028E+00 4.69840E+00 2.45000E+00
 -1        18 1.31457E+00 1.96740E+00 2.45000E+00
 -1        19 4.74999E-01 2.38798E+00 2.45000E+00
 -1        20 1.35268E+00 2.02443E+00 2.45000E+00
 -1        21 2.02443E+00 1.35268E+00 2.45000E+00
 -1        22 3.39925E+00 4.07100E+00 2.45000E+00
 -1        23 2.38798E+00 4.74999E-01 2.45000E+00
 -1        24 2.32070E+00 4.61617E-01 2.45000E+00
 -1        25 2.38798E+00-4.74999E-01 2.45000E+00
 -1        26 8.13414E+00 9.50000E-01 2.45000E+00
 -1        27 5.28227E+00-4.74999E-01 2.45000E+00
 -1        28 5.28227E+00 4.74999E-01 2.45000E+00
 -1        29 1.10957E+01 4.74999E-01 2.45000E+00
 -1        30 8.13414E+00 4.74999E-01 2.45000E+00
 -1        31 3.55164E+00-7.33319E+00 2.45000E+00
 -1        32 5.41583E+00 6.08758E+00 2.45000E+00
 -1        33 1.00693E+01 4.68498E+00 2.45000E+00
 -1        34 5.06195E+00 1.58259E+00 2.45000E+00
 -1        35 7.15142E+00 3.99049E+00 2.45000E+00
 -1        36 4.51663E+00 2.89912E+00 2.45000E+00
 -1        37 4.07100E+00 3.39925E+00 2.45000E+00
 -1        38 4.40688E+00 3.06338E+00 2.45000E+00
 -1        39 3.06338E+00 4.40688E+00 2.45000E+00
 -1        40 2.89912E+00-4.51663E+00 2.45000E+00
 -1        41 3.80730E+00-1.04329E+01 2.45000E+00
 -1        42 2.46028E+00-4.69840E+00 2.45000E+00
 -1        43 2.67396E+00-7.69674E+00 2.45000E+00
 -1        44 1.58259E+00-5.06195E+00 2.45000E+00
 -1        45 4.74999E-01-5.28227E+00 2.45000E+00
 -1        46 4.74999E-01-2.38798E+00 2.45000E+00
 -1        47-4.74999E-01-2.38798E+00 2.45000E+00
 -1        48-4.74999E-01-5.28227E+00 2.45000E+00
 -1        49 5.06195E+00-1.58259E+00 2.45000E+00
 -1        50 4.69840E+00-2.46028E+00 2.45000E+00
 -1        51 2.02443E+00-1.35268E+00 2.45000E+00
 -1        52 1.96740E+00-1.31457E+00 2.45000E+00
 -1        53 7.69674E+00-2.67396E+00 2.45000E+00
 -1        54 7.33319E+00-3.55164E+00 2.45000E+00
 -1        55 3.39925E+00-4.07100E+00 2.45000E+00
 -1        56 1.35268E+00-2.02443E+00 2.45000E+00
 -1        57 4.07100E+00-3.39925E+00 2.45000E+00
 -1        58 5.41583E+00-6.08758E+00 2.45000E+00
 -1        59 6.42346E+00-5.07995E+00 2.45000E+00
 -1        60 6.08758E+00-5.41583E+00 2.45000E+00
 -1        61 7.50997E+00-8.18172E+00 2.45000E+00
 -1        62 1.14375E+00-5.24373E+00 2.45000E+00
 -1        63-4.74999E-01-8.13414E+00 2.45000E+00
 -1        64-2.89912E+00-4.51663E+00 2.45000E+00
 -1        65-4.74999E-01 5.28227E+00 2.45000E+00
 -1        66-9.50000E-01 8.13414E+00 2.45000E+00
 -1        67 4.74999E-01 1.10957E+01 2.45000E+00
 -1        68-4.74999E-01 8.13414E+00 2.45000E+00
 -1        69 4.61617E-01 2.32070E+00 2.45000E+00
 -1        70-1.58259E+00 5.06195E+00 2.45000E+00
 -1        71-3.80730E+00 1.04329E+01 2.45000E+00
 -1        72-4.68498E+00 1.00693E+01 2.45000E+00
 -1        73 9.50000E-01 5.28227E+00 2.45000E+00
 -1        74 4.74999E-01 8.13414E+00 2.45000E+00
 -1        75 9.50000E-01-8.13414E+00 2.45000E+00
 -1        76-1.96740E+00-1.31457E+00 2.45000E+00
 -1        77-3.39925E+00-4.07100E+00 2.45000E+00
 -1        78-3.39925E+00 4.07100E+00 2.45000E+00
 -1        79-5.41583E+00-6.08758E+00 2.45000E+00
 -1        80-4.07100E+00-3.39925E+00 2.45000E+00
 -1        81-3.06338E+00-4.40688E+00 2.45000E+00
 -1        82-6.08758E+00-5.41583E+00 2.45000E+00
 -1        83-4.69840E+00-2.46028E+00 2.45000E+00
 -1        84-5.06195E+00-1.58259E+00 2.45000E+00
 -1        85-5.24373E+00-1.14375E+00 2.45000E+00
 -1        86-7.33319E+00-3.55164E+00 2.45000E+00
 -1        87-7.69674E+00-2.67396E+00 2.45000E+00
 -1        88-1.00693E+01 4.68498E+00 2.45000E+00
 -1        89-1.04329E+01 3.80730E+00 2.45000E+00
 -1        90-6.08758E+00 5.41583E+00 2.45000E+00
 -1        91-8.18172E+00 7.50997E+00 2.45000E+00
 -1        92-8.13414E+00 4.74999E-01 2.45000E+00
 -1        93-7.50997E+00-8.18172E+00 2.45000E+00
 -1        94-1.00693E+01-4.68498E+00 2.45000E+00
 -1        95 5.28227E+00 4.74999E-01 5.00000E-01
 -1        96 8.13414E+00-4.74999E-01 5.00000E-01
 -1        97 1.10957E+01-4.74999E-01 2.45000E+00
 -1        98 5.28227E+00-4.74999E-01 5.00000E-01
 -1        99 8.13414E+00-4.74999E-01 2.45000E+00
 -1       100 5.28227E+00-9.50000E-01 5.00000E-01
 -1       101 5.28227E+00-9.50000E-01 2.45000E+00
 -1       102 8.13414E+00-9.50000E-01 2.45000E+00
 -1       103 8.13414E+00 9.50000E-01 5.00000E-01
 -1       104 5.28227E+00 9.50000E-01 2.45000E+00
 -1       105 1.96740E+00 1.31457E+00 2.45000E+00
 -1       106 2.32070E+00 4.61617E-01 5.00000E-01
 -1       107 1.04329E+01 3.80730E+00 2.45000E+00
 -1       108 1.00693E+01 4.68498E+00 5.00000E-01
 -1       109 7.33319E+00 3.55164E+00 2.45000E+00
 -1       110 4.69840E+00 2.46028E+00 2.45000E+00
 -1       111 7.69674E+00 2.67396E+00 5.00000E-01
 -1       112 7.69674E+00 2.67396E+00 2.45000E+00
 -1       113 5.24373E+00 1.14375E+00 5.00000E-01
 -1       114 5.06195E+00 1.58259E+00 5.00000E-01
 -1       115 5.24373E+00 1.14375E+00 2.45000E+00
 -1       116 4.51663E+00 2.89912E+00 5.00000E-01
 -1       117 4.69840E+00 2.46028E+00 5.00000E-01
 -1       118 7.87852E+00 2.23512E+00 2.45000E+00
 -1       119 1.31457E+00 1.96740E+00 5.00000E-01
 -1       120 5.41583E+00 6.08758E+00 5.00000E-01
 -1       121 7.50997E+00 8.18172E+00 2.45000E+00
 -1       122 4.07100E+00 3.39925E+00 5.00000E-01
 -1       123 8.18172E+00 7.50997E+00 2.45000E+00
 -1       124 6.08758E+00 5.41583E+00 2.45000E+00
 -1       125 3.39925E+00 4.07100E+00 5.00000E-01
 -1       126 6.08758E+00 5.41583E+00 5.00000E-01
 -1       127 6.42346E+00 5.07995E+00 2.45000E+00
 -1       128 5.07995E+00 6.42346E+00 2.45000E+00
 -1       129 4.61617E-01 2.32070E+00 5.00000E-01
 -1       130 4.68498E+00 1.00693E+01 5.00000E-01
 -1       131 3.80730E+00 1.04329E+01 2.45000E+00
 -1       132 2.67396E+00 7.69674E+00 2.45000E+00
 -1       133 1.58259E+00 5.06195E+00 5.00000E-01
 -1       134 4.74999E-01 2.38798E+00 5.00000E-01
 -1       135 3.55164E+00 7.33319E+00 5.00000E-01
 -1       136 2.46028E+00 4.69840E+00 5.00000E-01
 -1       137 2.89912E+00 4.51663E+00 2.45000E+00
 -1       138 3.55164E+00 7.33319E+00 2.45000E+00
 -1       139 3.99049E+00 7.15142E+00 2.45000E+00
 -1       140 2.67396E+00 7.69674E+00 5.00000E-01
 -1       141 3.99049E+00 7.15142E+00 5.00000E-01
 -1       142 2.23512E+00 7.87852E+00 2.45000E+00
 -1       143 1.14375E+00 5.24373E+00 5.00000E-01
 -1       144-4.61617E-01 2.32070E+00 2.45000E+00
 -1       145-4.74999E-01 1.10957E+01 2.45000E+00
 -1       146-4.74999E-01 8.13414E+00 5.00000E-01
 -1       147-4.74999E-01 5.28227E+00 5.00000E-01
 -1       148 4.74999E-01 5.28227E+00 5.00000E-01
 -1       149 4.74999E-01 5.28227E+00 2.45000E+00
 -1       150 4.74999E-01 1.10957E+01 5.00000E-01
 -1       151 4.74999E-01 8.13414E+00 5.00000E-01
 -1       152-9.50000E-01 5.28227E+00 2.45000E+00
 -1       153 9.50000E-01 8.13414E+00 5.00000E-01
 -1       154 9.50000E-01 8.13414E+00 2.45000E+00
 -1       155-1.31457E+00 1.96740E+00 2.45000E+00
 -1       156-4.68498E+00 1.00693E+01 5.00000E-01
 -1       157-3.55164E+00 7.33319E+00 2.45000E+00
 -1       158-1.35268E+00 2.02443E+00 2.45000E+00
 -1       159-4.74999E-01 2.38798E+00 2.45000E+00
 -1       160-2.67396E+00 7.69674E+00 5.00000E-01
 -1       161-2.46028E+00 4.69840E+00 2.45000E+00
 -1       162-2.89912E+00 4.51663E+00 5.00000E-01
 -1       163-2.67396E+00 7.69674E+00 2.45000E+00
 -1       164-3.99049E+00 7.15142E+00 2.45000E+00
 -1       165-2.23512E+00 7.87852E+00 2.45000E+00
 -1       166-1.14375E+00 5.24373E+00 2.45000E+00
 -1       167-8.18172E+00 7.50997E+00 5.00000E-01
 -1       168-2.02443E+00 1.35268E+00 2.45000E+00
 -1       169-3.39925E+00 4.07100E+00 5.00000E-01
 -1       170-1.35268E+00 2.02443E+00 5.00000E-01
 -1       171-7.50997E+00 8.18172E+00 2.45000E+00
 -1       172-3.06338E+00 4.40688E+00 5.00000E-01
 -1       173-4.07100E+00 3.39925E+00 5.00000E-01
 -1       174-4.07100E+00 3.39925E+00 2.45000E+00
 -1       175-4.40688E+00 3.06338E+00 2.45000E+00
 -1       176-5.41583E+00 6.08758E+00 5.00000E-01
 -1       177-5.07995E+00 6.42346E+00 2.45000E+00
 -1       178-3.06338E+00 4.40688E+00 2.45000E+00
 -1       179-6.42346E+00 5.07995E+00 2.45000E+00
 -1       180-1.96740E+00 1.31457E+00 5.00000E-01
 -1       181-1.96740E+00 1.31457E+00 2.45000E+00
 -1       182-2.32070E+00 4.61617E-01 2.45000E+00
 -1       183-2.32070E+00 4.61617E-01 5.00000E-01
 -1       184-7.69674E+00 2.67396E+00 5.00000E-01
 -1       185-5.06195E+00 1.58259E+00 5.00000E-01
 -1       186-2.02443E+00 1.35268E+00 5.00000E-01
 -1       187-4.69840E+00 2.46028E+00 5.00000E-01
 -1       188-4.51663E+00 2.89912E+00 2.45000E+00
 -1       189-5.24373E+00 1.14375E+00 5.00000E-01
 -1       190-7.33319E+00 3.55164E+00 5.00000E-01
 -1       191-7.15142E+00 3.99049E+00 2.45000E+00
 -1       192-7.33319E+00 3.55164E+00 2.45000E+00
 -1       193-7.87852E+00 2.23512E+00 5.00000E-01
 -1       194-1.10957E+01 4.74999E-01 2.45000E+00
 -1       195-1.10957E+01-4.74999E-01 2.45000E+00
 -1       196-1.10957E+01-4.74999E-01 5.00000E-01
 -1       197-2.38798E+00-4.74999E-01 2.45000E+00
 -1       198-5.28227E+00-4.74999E-01 5.00000E-01
 -1       199-5.28227E+00 9.50000E-01 5.00000E-01
 -1       200-5.28227E+00 4.74999E-01 5.00000E-01
 -1       201-5.28227E+00-9.50000E-01 2.45000E+00
 -1       202-5.28227E+00-9.50000E-01 5.00000E-01
 -1       203-8.13414E+00 9.50000E-01 2.45000E+00
 -1       204-8.13414E+00-4.74999E-01 5.00000E-01
 -1       205-8.13414E+00-4.74999E-01 2.45000E+00
 -1       206-5.28227E+00 9.50000E-01 2.45000E+00
 -1       207-8.13414E+00 9.50000E-01 5.00000E-01
 -1       208-8.13414E+00-9.50000E-01 2.45000E+00
 -1       209-2.32070E+00-4.61617E-01 5.00000E-01
 -1       210-1.04329E+01-3.80730E+00 2.45000E+00
 -1       211-1.00693E+01-4.68498E+00 5.00000E-01
 -1       212-2.02443E+00-1.35268E+00 2.45000E+00
 -1       213-4.69840E+00-2.46028E+00 5.00000E-01
 -1       214-2.38798E+00-4.74999E-01 5.00000E-01
 -1       215-5.24373E+00-1.14375E+00 5.00000E-01
 -1       216-7.87852E+00-2.23512E+00 5.00000E-01
 -1       217-7.69674E+00-2.67396E+00 5.00000E-01
 -1       218-7.15142E+00-3.99049E+00 2.45000E+00
 -1       219-7.87852E+00-2.23512E+00 2.45000E+00
 -1       220-7.15142E+00-3.99049E+00 5.00000E-01
 -1       221-4.51663E+00-2.89912E+00 2.45000E+00
 -1       222-8.18172E+00-7.50997E+00 2.45000E+00
 -1       223-7.50997E+00-8.18172E+00 5.00000E-01
 -1       224-3.39925E+00-4.07100E+00 5.00000E-01
 -1       225-6.42346E+00-5.07995E+00 2.45000E+00
 -1       226-6.08758E+00-5.41583E+00 5.00000E-01
 -1       227-5.07995E+00-6.42346E+00 2.45000E+00
 -1       228-4.40688E+00-3.06338E+00 2.45000E+00
 -1       229-5.07995E+00-6.42346E+00 5.00000E-01
 -1       230-1.31457E+00-1.96740E+00 2.45000E+00
 -1       231-1.31457E+00-1.96740E+00 5.00000E-01
 -1       232-4.68498E+00-1.00693E+01 2.45000E+00
 -1       233-3.80730E+00-1.04329E+01 2.45000E+00
 -1       234-4.74999E-01-2.38798E+00 5.00000E-01
 -1       235-1.58259E+00-5.06195E+00 2.45000E+00
 -1       236-1.35268E+00-2.02443E+00 2.45000E+00
 -1       237-2.46028E+00-4.69840E+00 2.45000E+00
 -1       238-3.55164E+00-7.33319E+00 2.45000E+00
 -1       239-2.46028E+00-4.69840E+00 5.00000E-01
 -1       240-1.14375E+00-5.24373E+00 2.45000E+00
 -1       241-3.99049E+00-7.15142E+00 5.00000E-01
 -1       242-3.99049E+00-7.15142E+00 2.45000E+00
 -1       243-2.67396E+00-7.69674E+00 2.45000E+00
 -1       244-2.23512E+00-7.87852E+00 2.45000E+00
 -1       245 4.61617E-01-2.32070E+00 5.00000E-01
 -1       246 4.61617E-01-2.32070E+00 2.45000E+00
 -1       247-4.61617E-01-2.32070E+00 2.45000E+00
 -1       248-4.61617E-01-2.32070E+00 5.00000E-01
 -1       249 4.74999E-01-1.10957E+01 2.45000E+00
 -1       250 4.74999E-01-2.38798E+00 5.00000E-01
 -1       251-4.74999E-01-1.10957E+01 5.00000E-01
 -1       252-4.74999E-01-8.13414E+00 5.00000E-01
 -1       253-4.74999E-01-1.10957E+01 2.45000E+00
 -1       254 9.50000E-01-5.28227E+00 2.45000E+00
 -1       255 4.74999E-01-5.28227E+00 5.00000E-01
 -1       256-9.50000E-01-8.13414E+00 5.00000E-01
 -1       257-9.50000E-01-8.13414E+00 2.45000E+00
 -1       258 4.74999E-01-8.13414E+00 2.45000E+00
 -1       259 4.74999E-01-8.13414E+00 5.00000E-01
 -1       260 9.50000E-01-8.13414E+00 5.00000E-01
 -1       261-9.50000E-01-5.28227E+00 5.00000E-01
 -1       262-9.50000E-01-5.28227E+00 2.45000E+00
 -1       263 9.50000E-01-5.28227E+00 5.00000E-01
 -1       264 1.31457E+00-1.96740E+00 5.00000E-01
 -1       265 4.68498E+00-1.00693E+01 2.45000E+00
 -1       266 1.35268E+00-2.02443E+00 5.00000E-01
 -1       267 1.58259E+00-5.06195E+00 5.00000E-01
 -1       268 2.23512E+00-7.87852E+00 2.45000E+00
 -1       269 3.55164E+00-7.33319E+00 5.00000E-01
 -1       270 3.99049E+00-7.15142E+00 2.45000E+00
 -1       271 3.99049E+00-7.15142E+00 5.00000E-01
 -1       272 2.23512E+00-7.87852E+00 5.00000E-01
 -1       273 1.31457E+00-1.96740E+00 2.45000E+00
 -1       274 8.18172E+00-7.50997E+00 2.45000E+00
 -1       275 6.08758E+00-5.41583E+00 5.00000E-01
 -1       276 5.41583E+00-6.08758E+00 5.00000E-01
 -1       277 3.06338E+00-4.40688E+00 2.45000E+00
 -1       278 4.07100E+00-3.39925E+00 5.00000E-01
 -1       279 4.40688E+00-3.06338E+00 2.45000E+00
 -1       280 5.07995E+00-6.42346E+00 2.45000E+00
 -1       281 3.06338E+00-4.40688E+00 5.00000E-01
 -1       282 4.40688E+00-3.06338E+00 5.00000E-01
 -1       283 6.42346E+00-5.07995E+00 5.00000E-01
 -1       284 1.96740E+00-1.31457E+00 5.00000E-01
 -1       285 1.00693E+01-4.68498E+00 2.45000E+00
 -1       286 1.04329E+01-3.80730E+00 2.45000E+00
 -1       287 7.69674E+00-2.67396E+00 5.00000E-01
 -1       288 7.33319E+00-3.55164E+00 5.00000E-01
 -1       289 5.24373E+00-1.14375E+00 2.45000E+00
 -1       290 5.06195E+00-1.58259E+00 5.00000E-01
 -1       291 7.15142E+00-3.99049E+00 2.45000E+00
 -1       292 4.51663E+00-2.89912E+00 2.45000E+00
 -1       293 7.87852E+00-2.23512E+00 2.45000E+00
 -1       294 1.47118E+01-2.92635E+00 5.00000E-01
 -1       295 1.50000E+01 0.00000E+00-5.00000E-01
 -1       296-2.92635E+00-1.47118E+01 5.00000E-01
 -1       297-5.74025E+00-1.38582E+01-5.00000E-01
 -1       298-2.92635E+00-1.47118E+01-5.00000E-01
 -1       299 1.24720E+01 8.33355E+00 5.00000E-01
 -1       300 1.06066E+01 1.06066E+01-5.00000E-01
 -1       301-5.74025E+00 1.38582E+01 5.00000E-01
 -1       302-1.24720E+01 8.33355E+00 5.00000E-01
 -1       303 1.47118E+01 2.92635E+00-5.00000E-01
 -1       304-1.47118E+01 2.92635E+00 5.00000E-01
 -1       305-1.50000E+01 0.00000E+00-5.00000E-01
 -1       306-8.33355E+00 1.24720E+01 5.00000E-01
 -1       307-5.74025E+00 1.38582E+01-5.00000E-01
 -1       308-2.92635E+00 1.47118E+01 5.00000E-01
 -1       309-8.33355E+00 1.24720E+01-5.00000E-01
 -1       310 5.74025E+00-1.38582E+01 5.00000E-01
 -1       311 0.00000E+00-1.50000E+01 5.00000E-01
 -1       312-8.33355E+00-1.24720E+01 5.00000E-01
 -1       313-1.50000E+01 0.00000E+00 5.00000E-01
 -1       314 1.38582E+01 5.74025E+00-5.00000E-01
 -1       315 1.24720E+01 8.33355E+00-5.00000E-01
 -1       316 8.33355E+00 1.24720E+01-5.00000E-01
 -1       317 5.74025E+00-1.38582E+01-5.00000E-01
 -1       318 2.92635E+00-1.47118E+01-5.00000E-01
 -1       319 0.00000E+00-1.50000E+01-5.00000E-01
 -1       320 2.92635E+00 1.47118E+01-5.00000E-01
 -1       321 0.00000E+00 1.50000E+01-5.00000E-01
 -1       322-2.92635E+00 1.47118E+01-5.00000E-01
 -1       323-1.06066E+01-1.06066E+01-5.00000E-01
 -1       324-1.06066E+01 1.06066E+01-5.00000E-01
 -1       325-1.24720E+01-8.33355E+00-5.00000E-01
 -1       326-1.24720E+01 8.33355E+00-5.00000E-01
 -1       327-1.38582E+01 5.74025E+00-5.00000E-01
 -1       328-1.38582E+01-5.74025E+00-5.00000E-01
 -1       329 5.74025E+00 1.38582E+01-5.00000E-01
 -1       330 2.92635E+00 1.47118E+01 5.00000E-01
 -1       331-5.06195E+00-1.58259E+00 5.00000E-01
 -1       332-4.40688E+00-3.06338E+00 5.00000E-01
 -1       333-4.07100E+00-3.39925E+00 5.00000E-01
 -1       334-4.51663E+00-2.89912E+00 5.00000E-01
 -1       335-2.02443E+00-1.35268E+00 5.00000E-01
 -1       336-6.42346E+00-5.07995E+00 5.00000E-01
 -1       337-2.89912E+00-4.51663E+00 5.00000E-01
 -1       338-3.06338E+00-4.40688E+00 5.00000E-01
 -1       339-1.35268E+00-2.02443E+00 5.00000E-01
 -1       340-3.55164E+00-7.33319E+00 5.00000E-01
 -1       341-4.68498E+00-1.00693E+01 5.00000E-01
 -1       342-3.55164E+00 7.33319E+00 5.00000E-01
 -1       343-3.99049E+00 7.15142E+00 5.00000E-01
 -1       344-5.07995E+00 6.42346E+00 5.00000E-01
 -1       345-2.46028E+00 4.69840E+00 5.00000E-01
 -1       346-4.74999E-01-5.28227E+00 5.00000E-01
 -1       347-1.58259E+00-5.06195E+00 5.00000E-01
 -1       348 1.14375E+00-5.24373E+00 5.00000E-01
 -1       349 3.39925E+00-4.07100E+00 5.00000E-01
 -1       350 2.89912E+00-4.51663E+00 5.00000E-01
 -1       351 2.46028E+00-4.69840E+00 5.00000E-01
 -1       352 2.02443E+00-1.35268E+00 5.00000E-01
 -1       353 4.69840E+00-2.46028E+00 5.00000E-01
 -1       354 2.38798E+00-4.74999E-01 5.00000E-01
 -1       355 5.24373E+00-1.14375E+00 5.00000E-01
 -1       356 4.51663E+00-2.89912E+00 5.00000E-01
 -1       357 1.04329E+01 3.80730E+00 5.00000E-01
 -1       358 1.06066E+01 1.06066E+01 5.00000E-01
 -1       359 5.74025E+00 1.38582E+01 5.00000E-01
 -1       360 7.50997E+00 8.18172E+00 5.00000E-01
 -1       361 3.80730E+00 1.04329E+01 5.00000E-01
 -1       362 2.23512E+00 7.87852E+00 5.00000E-01
 -1       363 0.00000E+00 1.50000E+01 5.00000E-01
 -1       364-9.50000E-01 8.13414E+00 5.00000E-01
 -1       365-2.23512E+00 7.87852E+00 5.00000E-01
 -1       366-4.74999E-01 1.10957E+01 5.00000E-01
 -1       367-3.80730E+00 1.04329E+01 5.00000E-01
 -1       368-7.50997E+00 8.18172E+00 5.00000E-01
 -1       369-1.06066E+01 1.06066E+01 5.00000E-01
 -1       370 8.33355E+00 1.24720E+01 5.00000E-01
 -1       371 7.15142E+00 3.99049E+00 5.00000E-01
 -1       372 7.33319E+00 3.55164E+00 5.00000E-01
 -1       373 8.18172E+00 7.50997E+00 5.00000E-01
 -1       374 1.47118E+01 2.92635E+00 5.00000E-01
 -1       375 1.10957E+01 4.74999E-01 5.00000E-01
 -1       376 1.38582E+01 5.74025E+00 5.00000E-01
 -1       377 1.50000E+01 0.00000E+00 5.00000E-01
 -1       378 1.10957E+01-4.74999E-01 5.00000E-01
 -1       379 8.13414E+00 4.74999E-01 5.00000E-01
 -1       380 1.04329E+01-3.80730E+00 5.00000E-01
 -1       381 8.13414E+00-9.50000E-01 5.00000E-01
 -1       382 7.87852E+00-2.23512E+00 5.00000E-01
 -1       383 1.00693E+01-4.68498E+00 5.00000E-01
 -1       384 7.15142E+00-3.99049E+00 5.00000E-01
 -1       385 8.18172E+00-7.50997E+00 5.00000E-01
 -1       386 4.68498E+00-1.00693E+01 5.00000E-01
 -1       387 7.50997E+00-8.18172E+00 5.00000E-01
 -1       388 5.07995E+00-6.42346E+00 5.00000E-01
 -1       389 8.33355E+00-1.24720E+01 5.00000E-01
 -1       390 3.80730E+00-1.04329E+01 5.00000E-01
 -1       391 2.67396E+00-7.69674E+00 5.00000E-01
 -1       392 4.74999E-01-1.10957E+01 5.00000E-01
 -1       393 2.92635E+00-1.47118E+01 5.00000E-01
 -1       394-2.23512E+00-7.87852E+00 5.00000E-01
 -1       395-1.14375E+00-5.24373E+00 5.00000E-01
 -1       396-2.67396E+00-7.69674E+00 5.00000E-01
 -1       397-3.80730E+00-1.04329E+01 5.00000E-01
 -1       398-5.41583E+00-6.08758E+00 5.00000E-01
 -1       399-5.74025E+00-1.38582E+01 5.00000E-01
 -1       400 5.28227E+00 9.50000E-01 5.00000E-01
 -1       401 7.87852E+00 2.23512E+00 5.00000E-01
 -1       402 2.38798E+00 4.74999E-01 5.00000E-01
 -1       403 6.42346E+00 5.07995E+00 5.00000E-01
 -1       404 5.07995E+00 6.42346E+00 5.00000E-01
 -1       405 3.06338E+00 4.40688E+00 5.00000E-01
 -1       406 2.02443E+00 1.35268E+00 5.00000E-01
 -1       407 4.40688E+00 3.06338E+00 5.00000E-01
 -1       408 2.89912E+00 4.51663E+00 5.00000E-01
 -1       409 1.35268E+00 2.02443E+00 5.00000E-01
 -1       410 9.50000E-01 5.28227E+00 5.00000E-01
 -1       411-9.50000E-01 5.28227E+00 5.00000E-01
 -1       412-4.74999E-01 2.38798E+00 5.00000E-01
 -1       413-1.14375E+00 5.24373E+00 5.00000E-01
 -1       414-1.58259E+00 5.06195E+00 5.00000E-01
 -1       415-7.33319E+00-3.55164E+00 5.00000E-01
 -1       416-8.18172E+00-7.50997E+00 5.00000E-01
 -1       417-1.06066E+01-1.06066E+01 5.00000E-01
 -1       418-1.04329E+01-3.80730E+00 5.00000E-01
 -1       419-6.08758E+00 5.41583E+00 5.00000E-01
 -1       420-7.15142E+00 3.99049E+00 5.00000E-01
 -1       421-4.40688E+00 3.06338E+00 5.00000E-01
 -1       422-6.42346E+00 5.07995E+00 5.00000E-01
 -1       423-4.51663E+00 2.89912E+00 5.00000E-01
 -1       424-8.13414E+00 4.74999E-01 5.00000E-01
 -1       425-1.04329E+01 3.80730E+00 5.00000E-01
 -1       426-1.00693E+01 4.68498E+00 5.00000E-01
 -1       427-2.38798E+00 4.74999E-01 5.00000E-01
 -1       428-8.13414E+00-9.50000E-01 5.00000E-01
 -1       429-1.10957E+01 4.74999E-01 5.00000E-01
 -1       430 1.96740E+00 1.31457E+00 5.00000E-01
 -1       431-4.61617E-01 2.32070E+00 5.00000E-01
 -1       432-1.31457E+00 1.96740E+00 5.00000E-01
 -1       433-1.96740E+00-1.31457E+00 5.00000E-01
 -1       434-1.38582E+01 5.74025E+00 5.00000E-01
 -1       435-1.47118E+01 2.92635E+00-5.00000E-01
 -1       436 1.06066E+01-1.06066E+01 5.00000E-01
 -1       437 1.24720E+01-8.33355E+00 5.00000E-01
 -1       438 8.33355E+00-1.24720E+01-5.00000E-01
 -1       439 1.06066E+01-1.06066E+01-5.00000E-01
 -1       440-8.33355E+00-1.24720E+01-5.00000E-01
 -1       441-1.47118E+01-2.92635E+00 5.00000E-01
 -1       442-1.47118E+01-2.92635E+00-5.00000E-01
 -1       443-1.38582E+01-5.74025E+00 5.00000E-01
 -1       444-1.24720E+01-8.33355E+00 5.00000E-01
 -1       445 1.38582E+01-5.74025E+00-5.00000E-01
 -1       446 1.24720E+01-8.33355E+00-5.00000E-01
 -1       447 1.47118E+01-2.92635E+00-5.00000E-01
 -1       448 1.38582E+01-5.74025E+00 5.00000E-01
 -1       449 2.32070E+00 4.61617E-01 1.47500E+00
 -1       450 2.32070E+00-4.61617E-01 1.47500E+00
 -1       451-5.83402E+00 3.44480E+00 2.45000E+00
 -1       452-6.56112E+00 1.68944E+00 2.45000E+00
 -1       453-3.44480E+00-5.83402E+00 2.45000E+00
 -1       454-3.44480E+00 5.83402E+00 2.45000E+00
 -1       455-4.07166E+00 5.41517E+00 2.45000E+00
 -1       456-5.41517E+00 4.07166E+00 2.45000E+00
 -1       457-3.83512E+00 4.74999E-01 2.45000E+00
 -1       458-3.83512E+00-4.74999E-01 2.45000E+00
 -1       459-3.36141E+00-1.90648E+00 2.45000E+00
 -1       460-3.72497E+00-1.02879E+00 2.45000E+00
 -1       461-1.68944E+00-6.56112E+00 2.45000E+00
 -1       462-3.36141E+00 1.90648E+00 2.45000E+00
 -1       463-3.72497E+00 1.02879E+00 2.45000E+00
 -1       464-1.68944E+00 6.56112E+00 2.45000E+00
 -1       465 1.68944E+00 6.56112E+00 2.45000E+00
 -1       466 4.11831E+00 8.70125E+00 2.45000E+00
 -1       467 3.24063E+00 9.06482E+00 2.45000E+00
 -1       468 1.90648E+00 3.36141E+00 2.45000E+00
 -1       469 1.02879E+00 3.72497E+00 2.45000E+00
 -1       470 3.44480E+00 5.83402E+00 2.45000E+00
 -1       471 3.04771E+00 2.37597E+00 2.45000E+00
 -1       472 2.37597E+00 3.04771E+00 2.45000E+00
 -1       473 3.72497E+00 1.02879E+00 2.45000E+00
 -1       474 3.36141E+00 1.90648E+00 2.45000E+00
 -1       475 3.83512E+00 4.74999E-01 2.45000E+00
 -1       476 3.83512E+00-4.74999E-01 2.45000E+00
 -1       477 6.70821E+00 9.50000E-01 2.45000E+00
 -1       478 6.70821E+00-9.50000E-01 2.45000E+00
 -1       479 9.61492E+00 4.74999E-01 2.45000E+00
 -1       480 9.61492E+00-4.74999E-01 2.45000E+00
 -1       481 3.44480E+00-5.83402E+00 2.45000E+00
 -1       482 7.13465E+00 6.46290E+00 2.45000E+00
 -1       483 6.46290E+00 7.13465E+00 2.45000E+00
 -1       484 9.06482E+00 3.24063E+00 2.45000E+00
 -1       485 8.70125E+00 4.11831E+00 2.45000E+00
 -1       486 6.56112E+00 1.68944E+00 2.45000E+00
 -1       487 5.83402E+00 3.44480E+00 2.45000E+00
 -1       488 5.41517E+00 4.07166E+00 2.45000E+00
 -1       489 4.07166E+00 5.41517E+00 2.45000E+00
 -1       490 4.11831E+00-8.70125E+00 2.45000E+00
 -1       491 3.24063E+00-9.06482E+00 2.45000E+00
 -1       492 1.90648E+00-3.36141E+00 2.45000E+00
 -1       493 1.02879E+00-3.72497E+00 2.45000E+00
 -1       494 4.74999E-01-3.83512E+00 2.45000E+00
 -1       495-4.74999E-01-3.83512E+00 2.45000E+00
 -1       496 4.74999E-01-9.61492E+00 2.45000E+00
 -1       497-4.74999E-01-9.61492E+00 2.45000E+00
 -1       498 3.72497E+00-1.02879E+00 2.45000E+00
 -1       499 3.36141E+00-1.90648E+00 2.45000E+00
 -1       500 6.56112E+00-1.68944E+00 2.45000E+00
 -1       501 5.83402E+00-3.44480E+00 2.45000E+00
 -1       502 9.06482E+00-3.24063E+00 2.45000E+00
 -1       503 8.70125E+00-4.11831E+00 2.45000E+00
 -1       504 3.04771E+00-2.37597E+00 2.45000E+00
 -1       505 2.37597E+00-3.04771E+00 2.45000E+00
 -1       506 5.41517E+00-4.07166E+00 2.45000E+00
 -1       507 4.07166E+00-5.41517E+00 2.45000E+00
 -1       508 7.13465E+00-6.46290E+00 2.45000E+00
 -1       509 6.46290E+00-7.13465E+00 2.45000E+00
 -1       510 1.68944E+00-6.56112E+00 2.45000E+00
 -1       511-9.50000E-01-6.70821E+00 2.45000E+00
 -1       512-1.02879E+00-3.72497E+00 2.45000E+00
 -1       513-1.90648E+00-3.36141E+00 2.45000E+00
 -1       514-3.24063E+00-9.06482E+00 2.45000E+00
 -1       515-4.11831E+00-8.70125E+00 2.45000E+00
 -1       516-9.50000E-01 6.70821E+00 2.45000E+00
 -1       517 4.74999E-01 9.61492E+00 2.45000E+00
 -1       518 4.74999E-01 3.83512E+00 2.45000E+00
 -1       519-4.74999E-01 3.83512E+00 2.45000E+00
 -1       520-4.74999E-01 9.61492E+00 2.45000E+00
 -1       521-1.02879E+00 3.72497E+00 2.45000E+00
 -1       522-1.90648E+00 3.36141E+00 2.45000E+00
 -1       523-3.24063E+00 9.06482E+00 2.45000E+00
 -1       524-4.11831E+00 8.70125E+00 2.45000E+00
 -1       525 9.50000E-01 6.70821E+00 2.45000E+00
 -1       526 9.50000E-01-6.70821E+00 2.45000E+00
 -1       527-2.37597E+00-3.04771E+00 2.45000E+00
 -1       528-3.04771E+00-2.37597E+00 2.45000E+00
 -1       529-2.37597E+00 3.04771E+00 2.45000E+00
 -1       530-3.04771E+00 2.37597E+00 2.45000E+00
 -1       531-4.07166E+00-5.41517E+00 2.45000E+00
 -1       532-5.41517E+00-4.07166E+00 2.45000E+00
 -1       533-5.83402E+00-3.44480E+00 2.45000E+00
 -1       534-6.56112E+00-1.68944E+00 2.45000E+00
 -1       535-9.61492E+00 4.74999E-01 2.45000E+00
 -1       536-9.61492E+00-4.74999E-01 2.45000E+00
 -1       537-8.70125E+00 4.11831E+00 2.45000E+00
 -1       538-9.06482E+00 3.24063E+00 2.45000E+00
 -1       539-6.46290E+00 7.13465E+00 2.45000E+00
 -1       540-7.13465E+00 6.46290E+00 2.45000E+00
 -1       541-6.70821E+00 9.50000E-01 2.45000E+00
 -1       542-6.70821E+00-9.50000E-01 2.45000E+00
 -1       543-6.46290E+00-7.13465E+00 2.45000E+00
 -1       544-7.13465E+00-6.46290E+00 2.45000E+00
 -1       545-8.70125E+00-4.11831E+00 2.45000E+00
 -1       546-9.06482E+00-3.24063E+00 2.45000E+00
 -1       547 1.10957E+01 4.74999E-01 1.47500E+00
 -1       548 1.10957E+01-4.74999E-01 1.47500E+00
 -1       549 9.61492E+00 4.74999E-01 5.00000E-01
 -1       550 8.13414E+00 4.74999E-01 1.47500E+00
 -1       551 5.28227E+00 4.74999E-01 1.47500E+00
 -1       552 3.83512E+00 4.74999E-01 5.00000E-01
 -1       553 2.38798E+00 4.74999E-01 1.47500E+00
 -1       554 2.38798E+00-4.74999E-01 1.47500E+00
 -1       555 3.83512E+00-4.74999E-01 5.00000E-01
 -1       556 5.28227E+00-4.74999E-01 1.47500E+00
 -1       557 8.13414E+00-4.74999E-01 1.47500E+00
 -1       558 9.61492E+00-4.74999E-01 5.00000E-01
 -1       559 5.28227E+00-9.50000E-01 1.47500E+00
 -1       560 5.28227E+00 9.50000E-01 1.47500E+00
 -1       561 8.13414E+00-9.50000E-01 1.47500E+00
 -1       562 8.13414E+00 9.50000E-01 1.47500E+00
 -1       563 6.70821E+00-9.50000E-01 5.00000E-01
 -1       564 6.70821E+00 9.50000E-01 5.00000E-01
 -1       565 1.96740E+00 1.31457E+00 1.47500E+00
 -1       566 1.00693E+01 4.68498E+00 1.47500E+00
 -1       567 1.04329E+01 3.80730E+00 1.47500E+00
 -1       568 8.70125E+00 4.11831E+00 5.00000E-01
 -1       569 7.33319E+00 3.55164E+00 1.47500E+00
 -1       570 4.69840E+00 2.46028E+00 1.47500E+00
 -1       571 3.36141E+00 1.90648E+00 5.00000E-01
 -1       572 2.02443E+00 1.35268E+00 1.47500E+00
 -1       573 3.72497E+00 1.02879E+00 5.00000E-01
 -1       574 5.06195E+00 1.58259E+00 1.47500E+00
 -1       575 7.69674E+00 2.67396E+00 1.47500E+00
 -1       576 9.06482E+00 3.24063E+00 5.00000E-01
 -1       577 5.24373E+00 1.14375E+00 1.47500E+00
 -1       578 4.51663E+00 2.89912E+00 1.47500E+00
 -1       579 7.87852E+00 2.23512E+00 1.47500E+00
 -1       580 7.15142E+00 3.99049E+00 1.47500E+00
 -1       581 6.56112E+00 1.68944E+00 5.00000E-01
 -1       582 5.83402E+00 3.44480E+00 5.00000E-01