
 displacements (vx,vy,vz) for set NALL and time  0.1000000E+01

         1 -2.698630E-04  8.674643E-05 -9.378141E-03
         2  2.471835E-03  6.421683E-04 -9.298976E-03
         3  1.539790E-03  1.672343E-03  1.455401E-02
         4  4.090135E-03 -1.971236E-03  7.734604E-03
         5  4.498803E-03  1.706499E-03  8.113172E-03
         6  4.168366E-03  1.859763E-03  8.293172E-03
         7  2.107312E-03  2.845263E-03  1.069654E-02
         8  2.850789E-03  2.336540E-03  9.106485E-03
         9  3.109374E-03  2.294006E-03  1.166490E-02
        10  2.993515E-03  2.397127E-03  1.266246E-02
        11  8.364725E-04  5.084547E-05  1.525199E-02
        12  8.425075E-04  2.333684E-04  1.540047E-02
        13  2.266936E-03 -5.429908E-04  1.000242E-02
        14  2.304526E-03  6.255561E-04  1.004273E-02
        15  2.309010E-03 -5.580454E-04  1.014447E-02
        16  4.562114E-03 -1.550063E-03  4.017413E-03
        17  3.126292E-03  1.472142E-03  8.500387E-03
        18  1.415544E-03  1.486720E-03  1.363681E-02
        19  4.564459E-03  1.613225E-03  3.477884E-03
        20  2.650437E-03 -2.018388E-03 -5.601401E-03
        21  3.937387E-03 -1.884379E-03 -5.197666E-03
        22  4.578920E-03 -1.454444E-03 -4.574044E-03
        23  4.300830E-03 -1.310911E-03 -5.334334E-03
        24  5.172109E-03 -4.808553E-04 -1.817879E-03
        25  3.053433E-03 -2.067788E-03 -1.148617E-02
        26  4.341607E-03 -1.312055E-03 -5.421846E-03
        27  2.474377E-03 -4.949566E-04 -9.521639E-03
        28  2.445135E-03 -4.589905E-04 -9.390843E-03
        29  2.488035E-03  6.419496E-04 -9.439071E-03
        30 -3.343710E-04  9.674597E-06 -1.625693E-02
        31  1.014685E-03  1.159239E-04 -1.488302E-02
        32 -2.285390E-04 -4.589227E-05 -1.632204E-02
        33 -2.049347E-03  1.379946E-04 -1.257315E-02
        34 -6.945615E-04  1.393499E-04 -1.605996E-02
        35  4.193409E-03  1.887363E-03 -7.075510E-03
        36  2.072145E-03 -2.732251E-03 -1.237321E-02
        37  1.979053E-03 -2.624778E-03 -1.084299E-02
        38  1.548431E-03 -1.369754E-03 -1.430045E-02
        39  2.916274E-03 -2.189908E-03 -1.244441E-02
        40  2.979851E-03 -1.935905E-03 -9.855575E-03
        41  4.645758E-03  1.484655E-03 -6.603173E-03
        42  4.613477E-03  1.415750E-03 -4.292035E-03
        43  5.281731E-03  5.408232E-04 -1.553686E-03
        44  5.261132E-03 -5.839079E-04  2.362738E-03
        45  5.364698E-03 -6.444931E-05  1.700488E-03
        46  1.552167E-03  1.361358E-03 -1.317327E-02
        47  3.289982E-03  1.351935E-03 -7.769454E-03
        48  1.634891E-04  1.930116E-03 -1.503613E-02
        49  1.625055E-03  1.489984E-03 -1.411212E-02
        50  3.158743E-03  2.066562E-03 -9.482257E-03
        51  4.435235E-03  1.350431E-03 -5.131423E-03
        52  3.162936E-03  2.177301E-03 -1.130516E-02
        53  2.146097E-03  2.707836E-03 -1.040212E-02
        54  2.994149E-03  2.208349E-03 -8.746932E-03
        55  2.231814E-03  2.804039E-03 -1.202727E-02
        56  7.234022E-04  2.907507E-03 -8.224533E-03
        57  4.560531E-03  1.486816E-03 -3.222509E-03
        58  5.350932E-03 -7.896697E-05  2.981073E-03
        59  4.423628E-03 -1.372479E-03  5.920879E-03
        60  3.630731E-03  5.215558E-05 -8.515106E-04
        61  4.805203E-03  6.468139E-05  9.738338E-04
        62  5.117592E-03 -4.820847E-04 -1.790202E-03
        63  4.587766E-03  1.533274E-03  4.553397E-03
        64  4.146531E-03  1.983345E-03  7.185541E-03
        65  2.824804E-03  2.061411E-03  5.513044E-03
        66  4.805220E-03  6.475430E-05 -1.270374E-03
        67  5.154455E-03  4.265576E-05 -1.302468E-03
        68  5.149111E-03 -2.726943E-05 -2.072672E-03
        69  3.160516E-03 -1.383658E-03  8.570756E-03
        70  3.094871E-03 -2.052799E-03  1.019279E-02
        71  4.357384E-03  1.442765E-03  5.702099E-03
        72  3.094568E-03  1.461830E-03  8.403323E-03
        73  4.334236E-03  1.436851E-03  5.609614E-03
        74  2.986621E-03  2.165474E-03  9.888259E-03
        75  2.268339E-03 -2.637835E-03  1.039737E-02
        76  2.124533E-03 -2.891402E-03  1.269044E-02
        77  2.932170E-03 -2.357823E-03  1.304399E-02
        78  1.446261E-03 -1.449388E-03  1.379073E-02
        79  1.512974E-03 -1.589577E-03  1.478181E-02
        80  1.281251E-03 -1.677675E-03  1.538806E-02
        81  4.986866E-05 -1.930802E-03  1.478637E-02
        82  3.241474E-04 -1.838010E-03  1.447875E-02
        83  9.877282E-05 -2.102735E-03  1.570933E-02
        84 -1.382012E-03  2.279124E-03  1.135548E-02
        85  6.215831E-05  2.131355E-03  1.545989E-02
        86 -1.308360E-03  2.393224E-03  1.216796E-02
        87  7.744604E-04  3.039590E-03  8.470749E-03
        88  5.477184E-04  5.200624E-05  1.538911E-02
        89 -8.291451E-04  7.344834E-05  1.618146E-02
        90 -1.295028E-03 -2.243476E-03  1.163994E-02
        91 -2.141867E-03  2.925738E-04 -1.269480E-02
        92  9.768329E-04 -8.247674E-05 -1.492346E-02
        93 -4.364818E-04 -9.581355E-05 -1.532053E-02
        94 -2.922995E-04 -3.432416E-05 -9.748061E-03
        95 -6.564160E-04 -1.380997E-04 -1.614119E-02
        96  7.588528E-04  1.084612E-04 -1.505591E-02
        97  7.204184E-04 -9.338925E-05 -1.507275E-02
        98  3.245068E-03 -1.223597E-03 -7.985148E-03
        99 -2.334593E-04 -1.720062E-04 -8.136844E-03
       100 -1.229684E-03 -2.129521E-03 -1.220702E-02
       101 -1.418324E-03 -2.200352E-03 -1.133838E-02
       102 -4.050367E-04 -4.085330E-04 -1.589610E-02
       103  3.297356E-05 -1.878842E-03 -1.529341E-02
       104 -8.433720E-04 -6.353826E-04 -1.101791E-02
       105  1.436910E-03 -1.166252E-03 -1.355322E-02
       106  1.310968E-03 -1.445274E-03 -1.487705E-02
       107  1.202870E-03 -1.251530E-03 -1.329474E-02
       108 -2.067696E-04 -4.846243E-04 -1.321468E-02
       109 -4.243784E-04 -3.180714E-04 -1.617653E-02
       110  3.499126E-04 -1.572362E-03 -1.446542E-02
       111 -1.428204E-05 -1.634177E-03 -1.465702E-02
       112 -3.498429E-04 -5.064767E-04 -1.511630E-02
       113  3.077267E-04 -1.741061E-03 -1.584765E-02
       114  3.294900E-03 -1.227772E-03 -8.126464E-03
       115  1.838880E-05 -5.575495E-04 -1.183280E-02
       116  8.682473E-04 -2.864762E-03 -9.834691E-03
       117  7.506011E-04 -2.838169E-03 -8.669543E-03
       118  1.565071E-04 -5.116755E-04 -1.009213E-02
       119 -1.447156E-04 -1.323157E-04 -5.571200E-03
       120  1.799337E-04 -5.191204E-04 -9.031375E-03
       121  1.174548E-04 -6.760939E-04 -1.274272E-02
       122  2.142537E-03 -2.487508E-03 -1.017930E-02
       123  2.844139E-03 -2.053066E-03 -9.130362E-03
       124  2.242815E-03 -2.561902E-03 -1.328373E-02
       125 -2.453377E-05 -6.090855E-05 -1.804770E-03
       126  2.008661E-04 -5.700055E-04 -5.330902E-03
       127  2.579490E-03 -2.072166E-03 -4.334609E-03
       128  4.493200E-04 -4.599825E-04 -7.489011E-03
       129  5.269948E-04 -4.592678E-04 -5.482791E-03
       130  3.229122E-04 -5.694237E-04 -4.407711E-03
       131  4.508527E-03 -1.628553E-03 -8.137159E-03
       132  4.602812E-03 -1.521078E-03 -6.956057E-03
       133  4.076045E-03 -1.892935E-03 -7.352446E-03
       134  4.135121E-03 -1.787614E-03 -8.485139E-03
       135  3.997796E-03 -1.811644E-03 -4.204286E-03
       136  4.527067E-03 -1.534706E-03 -3.514893E-03
       137  4.843472E-04 -2.266908E-05 -6.810790E-04
       138  3.628368E-03 -5.176186E-05  5.999939E-04
       139  5.485950E-04  1.015852E-04  3.475114E-04
       140  5.131790E-03  9.617456E-05  1.193389E-03
       141  5.135957E-03  6.873907E-05 -2.504202E-03
       142  4.816990E-03  6.989611E-05 -2.399783E-03
       143  4.819383E-03  7.460910E-05  2.109148E-03
       144  7.429137E-04  2.899925E-05  8.834906E-04
       145  5.112099E-03  1.009120E-04  2.402857E-03
       146  5.031720E-04 -8.837932E-05 -2.705095E-03
       147  5.079340E-03  6.921485E-04  2.049840E-03
       148  2.715184E-03  2.170448E-03  4.180775E-03
       149  4.154501E-04  5.644494E-04  5.201180E-03
       150  5.142958E-03  7.002629E-04  2.070263E-03
       151 -8.646781E-05  6.798086E-05  2.096996E-03
       152  4.075087E-03  1.978481E-03  5.055005E-03
       153  6.091748E-04  4.033119E-04  5.286181E-03
       154  4.527690E-04  2.181021E-04  3.339974E-03
       155  4.594735E-03  1.596906E-03  6.920835E-03
       156  2.904341E-04  4.054421E-04  8.381873E-03
       157  4.038539E-04  3.459374E-04  7.112057E-03
       158  4.140451E-03  1.876623E-03  4.017028E-03
       159  6.524267E-04  3.932647E-04  4.379849E-03
       160  8.830659E-04  3.093859E-03  9.708358E-03
       161  2.195240E-03  2.945154E-03  1.242721E-02
       162  5.992018E-06  5.368860E-04  1.199187E-02
       163  1.953165E-04  5.105407E-04  8.996910E-03
       164  2.337724E-03  2.797539E-03  1.337211E-02
       165 -1.397419E-04  5.186900E-04  1.294012E-02
       166 -8.790676E-06  6.347958E-04  1.347628E-02
       167  2.282327E-03  2.706362E-03  9.974243E-03
       168  2.955748E-04  6.381034E-04  1.029325E-02
       169 -2.604009E-04  1.585469E-04  8.535285E-03
       170  2.283654E-03  6.358961E-04  9.913050E-03
       171 -3.542414E-04  7.849823E-05  1.003853E-02
       172 -8.592185E-04  5.007196E-04  1.103957E-02
       173 -2.935826E-04  1.730829E-04  8.697547E-03
       174 -3.729999E-04  5.296333E-04  1.504152E-02
       175 -4.470680E-04  4.538343E-04  1.594553E-02
       176  1.193052E-03  1.579074E-03  1.328796E-02
       177  1.310231E-03  1.755213E-03  1.520051E-02
       178 -4.197833E-04  2.285821E-04  1.543375E-02
       179 -3.571003E-04  5.772905E-04  1.476611E-02
       180  3.656794E-04  1.861363E-03  1.432481E-02
       181  2.923156E-05  1.914934E-03  1.463907E-02
       182  3.206648E-04  2.015001E-03  1.610713E-02
       183 -2.296793E-04  5.016919E-04  1.334476E-02
       184 -2.201388E-03  4.789028E-04  1.269378E-02
       185 -3.763256E-04  7.073382E-05  1.026007E-02
       186 -2.228992E-03  3.096963E-04  1.252512E-02
       187 -8.787206E-04  1.921805E-04  1.200537E-02
       188 -4.520901E-04  1.531354E-04  1.556530E-02
       189 -4.745745E-04  3.388750E-05  1.564082E-02
       190  5.888469E-04  2.346243E-04  1.558634E-02
       191 -8.324070E-04  2.828168E-04  1.631373E-02
       192 -5.367371E-04  2.628002E-04  1.653091E-02
       193 -6.744329E-04 -1.514483E-04  1.705924E-02
       194 -4.687897E-04 -1.508192E-04  1.562947E-02
       195 -5.012900E-04  9.694031E-05  1.634106E-02
       196 -3.407123E-04 -3.033495E-05  1.020648E-02
       197 -1.226870E-03 -2.415457E-03  1.241260E-02
       198 -4.170502E-04 -3.792159E-04  1.611006E-02
       199 -7.841264E-04 -4.978484E-04  1.168332E-02
       200 -4.438188E-04 -2.038330E-04  1.551944E-02
       201 -2.338328E-04 -3.978859E-04  1.411138E-02
       202 -3.462324E-04 -4.906273E-04  1.534382E-02
       203  1.220790E-03 -1.538921E-03  1.346392E-02
       204  3.687274E-04 -1.987845E-03  1.630198E-02
       205  7.704174E-04 -2.936191E-03  9.907700E-03
       206  3.220965E-03 -1.404926E-03  8.698169E-03
       207  5.830467E-04 -2.971025E-03  8.836438E-03
       208  1.222218E-04 -4.928422E-04  1.048645E-02
       209  3.174354E-03 -2.207669E-03  1.204518E-02
       210 -2.291497E-05 -4.811029E-04  1.229158E-02
       211  2.303615E-03 -2.721557E-03  1.365143E-02
       212  4.245947E-05 -6.326455E-04  1.302228E-02
       213  1.120767E-04 -6.320467E-04  1.090390E-02
       214  1.999605E-03 -2.779279E-03  1.110513E-02
       215  2.952128E-03 -2.186142E-03  9.452108E-03
       216 -1.997584E-05 -6.319691E-04  1.372723E-02
       217  5.195708E-03 -5.782668E-04  2.339495E-03
       218  4.367168E-03 -1.360619E-03  5.840628E-03
       219  5.009132E-04 -4.617653E-04  7.938445E-03
       220  3.740756E-04 -6.587768E-04  5.518867E-03
       221  2.814819E-03 -2.200986E-03  5.884451E-03
       222  2.743003E-03 -2.224950E-03  4.580118E-03
       223  6.306336E-04 -4.259507E-04  5.916860E-03
       224  4.012976E-03 -1.963719E-03  5.649128E-03
       225  3.608905E-04 -5.273181E-04  4.526500E-03
       226 -6.394362E-05 -5.621530E-05  2.406050E-03
       227  4.573968E-04 -4.006436E-04  7.594787E-03
       228  4.623785E-03 -1.543999E-03  7.379957E-03
       229  4.591839E-03 -1.456785E-03  5.057912E-03
       230  4.146905E-03 -1.850949E-03  8.869057E-03
       231  4.074912E-03 -1.860463E-03  4.651460E-03
       232  6.858368E-04 -4.576199E-04  5.017122E-03
       233  4.571525E-03 -1.626467E-03  8.563362E-03
       234  4.687017E-04 -4.754763E-04  8.823783E-03
       235  4.128917E-03 -1.359845E-04 -6.930849E-04
       236  7.236023E-04  7.076802E-06 -4.697703E-04
       237  5.992427E-04 -7.320378E-05  1.739235E-03
       238  6.580316E-04 -2.536317E-05  8.976111E-04
       239  5.156849E-03 -6.933657E-05  1.554666E-03
       240  4.135150E-03 -1.293249E-05  1.113749E-03
       241  5.350435E-03 -7.390442E-07 -8.648044E-04
       242  5.504890E-04  4.924026E-05 -8.804978E-04
       243  8.013399E-04 -3.905409E-05  1.504998E-03
       244  5.143662E-03 -4.335668E-05 -8.739528E-04
       245  8.126147E-04  5.197652E-05 -8.022003E-04
       246  5.338653E-03  4.293437E-09 -2.139004E-03
       247  5.170938E-04  1.224421E-04 -2.333078E-03
       248  5.497274E-04 -1.492653E-04  3.180585E-03
       249  5.173295E-03 -6.713132E-05  2.752067E-03
       250  5.218042E-03  5.380466E-04 -1.526081E-03
       251  2.766125E-03  1.977671E-03 -5.393297E-03
       252  2.679632E-03  2.092508E-03 -4.167609E-03
       253  4.389846E-04  5.130690E-04 -4.302059E-03
       254  6.698059E-04  4.253073E-04 -5.193254E-03
       255  4.126264E-03  1.857278E-03 -5.000836E-03
       256  4.595177E-03  1.566576E-03 -7.776723E-03
       257  4.488067E-04  3.789144E-04 -6.819943E-03
       258  4.190893E-03  1.752248E-03 -3.991418E-03
       259  6.872619E-04  3.669073E-04 -4.238240E-03
       260  5.972976E-04  5.086712E-04 -7.224129E-03
       261  4.236968E-03  1.808634E-03 -8.208777E-03
       262  5.511140E-04  5.609563E-04 -8.119686E-03
       263  3.366385E-04  4.149352E-04 -8.090365E-03
       264 -9.664800E-05  1.058690E-04 -5.128898E-03
       265  4.400132E-03  1.336411E-03 -5.073171E-03
       266  9.004289E-04  2.939307E-03 -9.353315E-03
       267  1.234828E-04  5.971918E-04 -1.231251E-02
       268  3.337712E-03  1.379567E-03 -7.878669E-03
       269  2.646691E-04  4.561111E-04 -8.661403E-03
       270  5.478432E-05  4.542009E-04 -1.164290E-02
       271  3.021884E-03  2.292247E-03 -1.226750E-02
       272  2.133424E-04  6.489033E-04 -1.084672E-02
       273  2.368598E-03  2.655822E-03 -1.295967E-02
       274  2.326988E-03  2.548826E-03 -9.701564E-03
       275  3.088878E-04  6.227498E-04 -9.994507E-03
       276 -1.913240E-04  1.135945E-04 -7.914954E-03
       277 -7.318139E-04  4.350250E-04 -1.119875E-02
       278 -1.077703E-03  2.294476E-03 -1.114190E-02
       279 -2.133564E-04  1.196354E-04 -8.121758E-03
       280 -2.411187E-04  3.978072E-04 -1.355084E-02
       281  1.443376E-04  1.709511E-03 -1.433382E-02
       282 -1.126029E-03  2.515954E-03 -1.193965E-02
       283  1.312716E-03  1.441775E-03 -1.291046E-02
       284  1.395188E-03  1.565971E-03 -1.469921E-02
       285 -3.069450E-04  2.767850E-04 -1.454713E-02
       286  4.010340E-04  1.622308E-03 -1.409231E-02
       287  4.022528E-04  1.809422E-03 -1.563382E-02
       288 -3.223348E-04  3.371044E-04 -1.598338E-02
       289  0.000000E+00  0.000000E+00  0.000000E+00
       290  0.000000E+00  0.000000E+00  0.000000E+00
       291  0.000000E+00  0.000000E+00  0.000000E+00
       292  0.000000E+00  0.000000E+00  0.000000E+00
       293  0.000000E+00  0.000000E+00  0.000000E+00
       294  0.000000E+00  0.000000E+00  0.000000E+00
       295  0.000000E+00  0.000000E+00  0.000000E+00
       296  0.000000E+00  0.000000E+00  0.000000E+00
       297  0.000000E+00  0.000000E+00  0.000000E+00
       298  0.000000E+00  0.000000E+00  0.000000E+00
       299  0.000000E+00  0.000000E+00  0.000000E+00
       300  0.000000E+00  0.000000E+00  0.000000E+00
       301  0.000000E+00  0.000000E+00  0.000000E+00
       302  0.000000E+00  0.000000E+00  0.000000E+00
       303  0.000000E+00  0.000000E+00  0.000000E+00
       304  0.000000E+00  0.000000E+00  0.000000E+00
       305  0.000000E+00  0.000000E+00  0.000000E+00
       306  0.000000E+00  0.000000E+00  0.000000E+00
       307  0.000000E+00  0.000000E+00  0.000000E+00
       308  0.000000E+00  0.000000E+00  0.000000E+00
       309  0.000000E+00  0.000000E+00  0.000000E+00
       310  0.000000E+00  0.000000E+00  0.000000E+00
       311  0.000000E+00  0.000000E+00  0.000000E+00
       312  0.000000E+00  0.000000E+00  0.000000E+00
       313  0.000000E+00  0.000000E+00  0.000000E+00
       314  0.000000E+00  0.000000E+00  0.000000E+00
       315  0.000000E+00  0.000000E+00  0.000000E+00
       316  0.000000E+00  0.000000E+00  0.000000E+00
       317  0.000000E+00  0.000000E+00  0.000000E+00
       318  0.000000E+00  0.000000E+00  0.000000E+00
       319  0.000000E+00  0.000000E+00  0.000000E+00
       320  0.000000E+00  0.000000E+00  0.000000E+00
       321  0.000000E+00  0.000000E+00  0.000000E+00
       322  0.000000E+00  0.000000E+00  0.000000E+00
       323  0.000000E+00  0.000000E+00  0.000000E+00
       324  0.000000E+00  0.000000E+00  0.000000E+00
       325  0.000000E+00  0.000000E+00  0.000000E+00
       326  0.000000E+00  0.000000E+00  0.000000E+00
       327  0.000000E+00  0.000000E+00  0.000000E+00
       328 -4.111247E-04 -2.917778E-04  1.514597E-02
       329 -3.529804E-04 -2.970391E-05  1.038761E-02
       330 -4.487053E-04 -6.267523E-05  1.569252E-02
       331 -4.465734E-04 -3.770056E-04  1.642260E-02
       332 -2.431083E-04 -9.436723E-05  8.960964E-03
       333 -1.137588E-04 -4.552927E-04  1.318855E-02
       334 -1.917434E-04 -4.402295E-04  1.354359E-02
       335 -1.434488E-04 -1.604569E-04  6.095467E-03
       336  3.094516E-04 -4.328209E-04  8.890825E-03
       337  2.076425E-04 -4.833959E-04  9.466895E-03
       338  4.774186E-04  4.882952E-04  7.355134E-03
       339  4.235953E-04  5.803259E-04  8.210486E-03
       340 -1.934518E-04  1.430841E-04  5.853000E-03
       341  1.251238E-04  5.766436E-04  1.011146E-02
       342  5.124186E-04 -2.460128E-04  3.855462E-03
       343  4.905972E-04 -2.960615E-04  5.159276E-03
       344  4.902194E-04  2.311906E-04 -3.029478E-03
       345  4.764118E-04  3.113649E-04 -4.374803E-03
       346 -4.825427E-05  1.020255E-05 -1.578505E-03
       347 -1.206361E-04  1.108296E-04 -5.259057E-03
       348  1.468050E-04  4.832113E-04 -9.763691E-03
       349 -1.954181E-04  4.229664E-04 -1.291382E-02
       350 -8.732811E-05  4.303127E-04 -1.253692E-02
       351  3.899402E-04  6.372906E-04 -5.084033E-03
       352 -4.178879E-04  7.326264E-05 -1.535453E-02
       353 -3.041069E-04  8.527012E-05 -9.638961E-03
       354 -4.516393E-04  1.464882E-04 -1.518379E-02
       355 -4.382085E-04  5.771690E-05 -1.651189E-02
       356 -3.924351E-04  1.932471E-04 -1.500975E-02
       357 -4.294508E-04 -1.693361E-04 -1.649893E-02
       358  0.000000E+00  0.000000E+00  0.000000E+00
       359  0.000000E+00  0.000000E+00  0.000000E+00
       360  1.328639E-04 -6.859250E-04 -1.123125E-02
       361  5.473525E-04 -3.570212E-04 -4.532461E-03
       362  0.000000E+00  0.000000E+00  0.000000E+00
       363  7.649039E-04  7.333478E-05  1.890666E-03
       364  3.139342E-04  6.591596E-04  4.127760E-03
       365  0.000000E+00  0.000000E+00  0.000000E+00
       366 -2.329329E-04  7.591915E-04  8.235399E-03
       367  1.606595E-04  6.824048E-04  1.110785E-02
       368 -8.498074E-04 -6.136342E-04 -1.156295E-02
       369 -3.653060E-04 -8.215427E-04 -8.600047E-03
       370 -3.425974E-04 -7.240845E-04 -9.194357E-03
       371  8.067565E-05 -6.437421E-04 -1.340167E-02
       372 -4.058182E-04 -5.606494E-04 -1.493834E-02
       373  0.000000E+00  0.000000E+00  0.000000E+00
       374  0.000000E+00  0.000000E+00  0.000000E+00
       375 -8.456716E-04 -3.903594E-05 -1.224019E-02
       376 -9.191850E-04  3.355876E-05 -1.197810E-02
       377  0.000000E+00  0.000000E+00  0.000000E+00
       378 -4.945125E-04 -8.823269E-05 -1.660130E-02
       379  0.000000E+00  0.000000E+00  0.000000E+00
       380 -4.313837E-04  3.634436E-05 -1.656589E-02
       381 -2.993616E-04  3.709975E-04 -1.550354E-02
       382  0.000000E+00  0.000000E+00  0.000000E+00
       383 -1.001865E-04  7.646532E-04 -7.908678E-03
       384 -2.034949E-04  5.466474E-04 -1.450358E-02
       385 -2.848164E-04  4.882761E-04 -1.477656E-02
       386 -6.596163E-04  5.027673E-04 -1.088955E-02
       387 -1.533191E-04  7.321323E-04 -8.703415E-03
       388  5.680273E-05  6.334998E-04 -1.313184E-02
       389  0.000000E+00  0.000000E+00  0.000000E+00
       390  8.349713E-04  9.341464E-05 -1.827888E-03
       391  7.936363E-04 -1.137798E-04  2.523871E-03
       392  0.000000E+00  0.000000E+00  0.000000E+00
       393  0.000000E+00  0.000000E+00  0.000000E+00
       394  9.414254E-05 -6.863611E-04  1.150280E-02
       395 -2.209789E-04 -7.414343E-04  8.591836E-03
       396 -2.699461E-04 -7.890353E-04  9.376830E-03
       397  0.000000E+00  0.000000E+00  0.000000E+00
       398 -4.581170E-04 -1.631514E-04 -1.526685E-02
       399 -3.997537E-04 -2.117266E-04 -1.513991E-02
       400 -3.515236E-04 -3.027907E-04 -1.473971E-02
       401  4.096090E-04 -5.085454E-04 -8.387771E-03
       402  1.740216E-04 -6.587930E-04 -1.051532E-02
       403 -2.696637E-04 -1.697325E-04 -8.331747E-03
       404 -1.182610E-04 -5.123640E-04 -1.280531E-02
       405 -2.731841E-04 -4.127963E-04 -1.388286E-02
       406  2.857514E-04 -4.548987E-04 -8.417600E-03
       407  4.158072E-04 -4.365946E-04 -7.116651E-03
       408 -5.392351E-05 -6.373163E-05 -1.852829E-03
       409  5.298419E-04 -1.863112E-05 -1.321657E-03
       410  4.689542E-04 -2.222592E-04 -3.380779E-03
       411  4.667471E-04 -2.983000E-04 -4.678301E-03
       412  7.390962E-04 -4.543661E-05 -2.223578E-03
       413  7.344429E-04 -3.755773E-05 -1.267720E-03
       414  5.272939E-04  6.351079E-05  1.266405E-03
       415  4.822118E-04  1.265465E-04  2.665977E-03
       416  4.398593E-04  2.655849E-04  4.650738E-03
       417 -4.013916E-04 -5.709334E-04  1.487832E-02
       418 -7.977436E-04 -5.920171E-04  1.129010E-02
       419  4.712085E-05  6.366339E-04  1.276631E-02
       420 -1.757263E-04  8.549103E-04  8.992740E-03
       421  0.000000E+00  0.000000E+00  0.000000E+00
       422 -2.638194E-04  4.334683E-04  1.396953E-02
       423 -9.368211E-04  5.531440E-04  1.159203E-02
       424 -4.440557E-04  1.365124E-04  1.680634E-02
       425 -5.762824E-04  4.943201E-05  1.669481E-02
       426 -4.825912E-04  4.448801E-04  1.646080E-02
       427 -3.457193E-04  3.293996E-04  1.497132E-02
       428 -6.301750E-04 -6.746154E-05  1.688716E-02
       429 -9.124171E-04  8.445288E-05  1.211228E-02
       430  0.000000E+00  0.000000E+00  0.000000E+00
       431  0.000000E+00  0.000000E+00  0.000000E+00
       432 -2.653978E-04 -4.714812E-05 -9.501371E-03
       433 -1.298057E-04 -1.271541E-04 -5.427314E-03
       434 -2.733097E-05  1.636309E-05 -1.547333E-03
       435 -3.511197E-05 -6.028367E-05  2.349034E-03
       436 -4.890237E-05  7.536979E-05  2.077056E-03
       437 -1.687743E-04  1.528414E-04  5.710808E-03
       438 -1.370312E-04 -1.621631E-04  5.974751E-03
       439 -2.106775E-04 -9.522748E-05  8.753707E-03
       440  0.000000E+00  0.000000E+00  0.000000E+00
       441  0.000000E+00  0.000000E+00  0.000000E+00
       442  0.000000E+00  0.000000E+00  0.000000E+00
       443  0.000000E+00  0.000000E+00  0.000000E+00
       444  0.000000E+00  0.000000E+00  0.000000E+00
       445  0.000000E+00  0.000000E+00  0.000000E+00
       446  0.000000E+00  0.000000E+00  0.000000E+00
       447  0.000000E+00  0.000000E+00  0.000000E+00
       448  0.000000E+00  0.000000E+00  0.000000E+00
       449  8.790269E-04 -2.374901E-04 -9.703225E-03
       450  9.026485E-04  3.458284E-04 -9.583387E-03
       451  7.961723E-04  1.726641E-03  1.408469E-02
       452  8.382744E-04  1.910753E-03  1.606674E-02
       453  4.359583E-03 -1.768061E-03  8.856493E-03
       454  4.363784E-03  1.816858E-03  8.306646E-03
       455  2.577530E-03  2.462077E-03  9.773026E-03
       456  2.650223E-03  2.567285E-03  1.332929E-02
       457  1.842132E-03  9.344571E-05  1.302408E-02
       458  1.764781E-03  2.273363E-04  1.319448E-02
       459  2.368834E-03 -1.254193E-03  1.164329E-02
       460  2.384682E-03 -1.453681E-03  1.279403E-02
       461  4.346146E-03 -1.687200E-03  4.574034E-03
       462  2.287403E-03  1.155131E-03  1.165848E-02
       463  2.343965E-03  1.319266E-03  1.256716E-02
       464  4.344069E-03  1.713891E-03  3.917749E-03
       465  4.308806E-03 -1.655819E-03 -4.001702E-03
       466  3.088589E-03 -2.030118E-03 -6.574894E-03
       467  2.971626E-03 -2.090679E-03 -5.081968E-03
       468  5.064995E-03 -1.338338E-03 -6.207203E-03
       469  5.053015E-03 -1.178902E-03 -3.484923E-03
       470  4.362597E-03 -1.724112E-03 -8.429922E-03
       471  3.607875E-03 -1.676049E-03 -9.973082E-03
       472  3.567394E-03 -1.549716E-03 -8.139373E-03
       473  2.451292E-03 -1.231540E-03 -1.224398E-02
       474  2.482807E-03 -1.035428E-03 -1.117223E-02
       475  1.935386E-03  2.720672E-04 -1.265756E-02
       476  1.961627E-03  7.457584E-05 -1.250219E-02
       477  2.136726E-04  6.883906E-05 -1.605713E-02
       478  2.552433E-04 -1.704482E-04 -1.619501E-02
       479 -1.812964E-03  1.359624E-04 -1.474324E-02
       480 -1.799043E-03  4.071887E-05 -1.473373E-02
       481  4.360163E-03  1.703566E-03 -8.093681E-03
       482  1.075379E-03 -2.901414E-03 -1.120244E-02
       483  1.064559E-03 -2.879039E-03 -1.006898E-02
       484 -1.033243E-03 -2.215278E-03 -1.398732E-02
       485 -1.025143E-03 -2.061516E-03 -1.330206E-02
       486  8.111946E-04 -1.580138E-03 -1.565478E-02
       487  7.604950E-04 -1.329065E-03 -1.427663E-02
       488  2.598011E-03 -2.408056E-03 -1.317698E-02
       489  2.523013E-03 -2.274891E-03 -1.000777E-02
       490  3.345799E-03  2.028520E-03 -6.430261E-03
       491  3.228484E-03  2.068302E-03 -4.859333E-03
       492  5.125415E-03  1.335430E-03 -5.932493E-03
       493  5.114334E-03  1.166128E-03 -3.120908E-03
       494  5.680964E-03  5.168946E-05 -1.072783E-03
       495  5.667840E-03 -9.409622E-05  1.936727E-03
       496  4.476109E-03 -6.965527E-05 -6.612767E-04
       497  4.515317E-03 -8.275914E-07  1.284083E-03
       498  2.610013E-03  1.464241E-03 -1.222738E-02
       499  2.526529E-03  1.302650E-03 -1.094519E-02
       500  8.875304E-04  1.660763E-03 -1.550783E-02
       501  8.401337E-04  1.458863E-03 -1.394619E-02
       502 -9.615213E-04  2.273785E-03 -1.382570E-02
       503 -8.230810E-04  2.116976E-03 -1.312277E-02
       504  3.855710E-03  1.843363E-03 -9.751433E-03
       505  3.848776E-03  1.702452E-03 -7.629075E-03
       506  2.679087E-03  2.466979E-03 -1.283237E-02
       507  2.612503E-03  2.302760E-03 -9.563674E-03
       508  1.288736E-03  3.023027E-03 -1.092140E-02
       509  1.149392E-03  3.027718E-03 -9.671613E-03
       510  4.337439E-03  1.580519E-03 -3.780811E-03
       511  5.285493E-03 -1.142591E-04  2.891017E-03
       512  5.078200E-03 -1.228775E-03  3.954720E-03
       513  5.138229E-03 -1.414317E-03  6.784087E-03
       514  3.147014E-03 -2.201677E-03  5.347862E-03
       515  3.299486E-03 -2.146215E-03  7.067622E-03
       516  4.946433E-03  1.252308E-04  2.226007E-03
       517  4.100322E-03  8.298210E-05 -1.127208E-03
       518  5.595295E-03 -1.699699E-05 -1.517377E-03
       519  5.626769E-03  1.769120E-04  1.530241E-03
       520  4.118354E-03 -2.653873E-05  7.363019E-04
       521  4.964880E-03  1.306006E-03  3.687514E-03
       522  5.047911E-03  1.446219E-03  6.379570E-03
       523  3.232664E-03  2.166878E-03  4.841323E-03
       524  3.395806E-03  2.080854E-03  6.543181E-03
       525  4.921918E-03  6.590013E-05 -2.428221E-03
       526  5.294028E-03 -1.819053E-05 -2.079856E-03
       527  3.777378E-03 -1.803757E-03  8.556633E-03
       528  3.724881E-03 -1.865893E-03  1.068532E-02
       529  3.716548E-03  1.786241E-03  8.141294E-03
       530  3.689151E-03  1.987697E-03  1.019198E-02
       531  2.623154E-03 -2.418860E-03  1.020362E-02
       532  2.674620E-03 -2.563059E-03  1.372349E-02
       533  7.929480E-04 -1.660359E-03  1.424188E-02
       534  8.505194E-04 -1.854259E-03  1.621422E-02
       535 -1.922547E-03  3.004547E-04  1.472494E-02
       536 -1.925055E-03  3.799649E-04  1.497059E-02
       537 -1.031822E-03  2.217390E-03  1.347546E-02
       538 -1.077858E-03  2.373178E-03  1.425431E-02
       539  1.055506E-03  3.059508E-03  9.944542E-03
       540  1.212336E-03  3.100965E-03  1.133706E-02
       541  3.106749E-05 -1.935096E-06  1.626037E-02
       542  4.678888E-05  2.183989E-04  1.651812E-02
       543  1.082850E-03 -3.072763E-03  1.022036E-02
       544  1.221629E-03 -3.063777E-03  1.160280E-02
       545 -9.592518E-04 -2.291653E-03  1.356319E-02
       546 -9.686861E-04 -2.405256E-03  1.443215E-02
       547 -1.602129E-03  1.357978E-04 -1.253845E-02
       548 -1.534082E-03  6.142796E-05 -1.242495E-02
       549  9.194378E-04  3.508221E-04 -9.693149E-03
       550 -3.624568E-04  6.610378E-05 -1.290777E-02
       551  2.434598E-04 -2.695069E-05 -1.522848E-02
       552 -4.855976E-04 -1.871781E-05 -1.653939E-02
       553 -6.112752E-04  3.234553E-05 -1.497931E-02
       554 -7.333854E-04 -5.314529E-05 -1.525156E-02
       555 -5.179602E-04  2.489688E-05 -1.658695E-02
       556  2.795878E-04  3.565212E-05 -1.529265E-02
       557 -3.592902E-04 -1.119177E-04 -1.301304E-02
       558  8.999100E-04 -2.416836E-04 -9.828192E-03
       559  1.540096E-04 -1.556398E-05 -1.524247E-02
       560  1.843029E-04  1.127653E-05 -1.529954E-02
       561 -3.766943E-04 -1.011428E-05 -1.656916E-02
       562 -4.446378E-04  1.210599E-06 -1.657385E-02
       563 -4.960509E-04 -1.092444E-04 -1.648380E-02
       564 -4.435269E-04  6.682887E-05 -1.638316E-02